 Gaussian 16, Revision A.03,
 Gaussian 16:  ES64L-G16RevA.03 25-Dec-2016

 ----------------------------------------------------------------------
 #p opt=tight freq=internalmodes b3lyp/6-31g(d,p) scrf=(cpcm,solvent=di
 chloromethane,read) nosymm empiricaldispersion=gd3bj int=grid=ultrafin
 e
 ----------------------------------------------------------------------

 cyclohexylimine monoBIP oxidized, with first proton transferred optimi
 zation
 ----------------------------------------------------------------------
 Symbolic Z-matrix:
 Charge =  1 Multiplicity = 2

 SCF Done:  E(UB3LYP) =  -1092.89707309     A.U. after   18 cycles
 Optimization completed.
    -- Stationary point found.
 Normal termination of Gaussian 16 at Fri Dec 14 11:31:21 2018.

 ----------------------------------------------------------------------
 #P Geom=AllCheck Guess=TCheck SCRF=Check GenChk UB3LYP/6-31G(d,p) Freq
 ----------------------------------------------------------------------

 ----------------------------------------------------------------------
 cyclohexylimine monoBIP oxidized, with first proton transferred optimi
 zation
 ----------------------------------------------------------------------
 Charge =  1 Multiplicity = 2

                          Input orientation:
 ---------------------------------------------------------------------
 Center     Atomic      Atomic             Coordinates (Angstroms)
 Number     Number       Type             X           Y           Z
 ---------------------------------------------------------------------
      1          6           0       -0.494597    2.766864    0.316812
      2          6           0       -1.885957    2.952098    0.281696
      3          6           0       -2.445387    4.230806    0.219647
      4          6           0       -1.551503    5.297541    0.199089
      5          6           0       -0.156001    5.107165    0.230909
      6          6           0        0.414560    3.834244    0.287808
      7          6           0       -1.451004    0.756247    0.370733
      8          1           0       -3.516258    4.379767    0.190032
      9          1           0       -1.940194    6.307357    0.155334
     10          1           0        0.498141    5.971090    0.210643
     11          7           0       -2.431359    1.680442    0.315505
     12          6           0       -3.024290   -1.196084    0.325781
     13          6           0       -1.655310   -0.671278    0.413258
     14          6           0       -0.586169   -1.537717    0.527906
     15          6           0       -0.776614   -2.937012    0.565475
     16          6           0       -2.085292   -3.457142    0.470851
     17          6           0       -3.194335   -2.647230    0.352923
     18          1           0        0.425319   -1.154178    0.598616
     19          1           0       -2.216224   -4.533495    0.499268
     20          6           0        0.404605   -3.842274    0.717182
     21          1           0        1.130626   -3.669794   -0.083213
     22          1           0        0.920815   -3.634715    1.660232
     23          1           0        0.108003   -4.890639    0.703902
     24          6           0       -4.582941   -3.188047    0.258455
     25          1           0       -5.214206   -2.764181    1.044209
     26          1           0       -5.043815   -2.908271   -0.693610
     27          1           0       -4.584371   -4.274118    0.345847
     28          8           0       -4.022813   -0.440590    0.231873
     29          7           0       -0.269548    1.409096    0.373329
     30          1           0        0.685093    1.050764    0.398370
     31          6           0        1.857915    3.599225    0.308331
     32          1           0        2.490862    4.490276    0.262347
     33          7           0        2.323560    2.407928    0.376878
     34          6           0        3.782897    2.230162    0.395727
     35          6           0        4.426775    2.647495   -0.937129
     36          6           0        4.456404    2.958268    1.570883
     37          1           0        3.952736    1.155667    0.527112
     38          6           0        5.935382    2.375957   -0.918524
     39          1           0        4.243690    3.717417   -1.092005
     40          1           0        3.944737    2.113171   -1.761082
     41          6           0        5.963164    2.678837    1.591190
     42          1           0        4.291735    4.036957    1.464995
     43          1           0        3.985141    2.651987    2.509227
     44          6           0        6.615880    3.077198    0.262290
     45          1           0        6.385852    2.692144   -1.864155
     46          1           0        6.100202    1.294309   -0.837698
     47          1           0        6.428086    3.214977    2.423937
     48          1           0        6.129685    1.609213    1.769638
     49          1           0        7.684284    2.842264    0.278001
     50          1           0        6.530591    4.163550    0.132749
     51          1           0       -3.405230    1.379909    0.288803
 ---------------------------------------------------------------------

 SCF Done:  E(UB3LYP) =  -1092.89707309     A.U. after    1 cycles

 Alpha  occ. eigenvalues --  -19.17601 -14.43304 -14.43244 -14.34981 -10.33004
 Alpha  occ. eigenvalues --  -10.29740 -10.26952 -10.26777 -10.25380 -10.25242
 Alpha  occ. eigenvalues --  -10.25047 -10.23999 -10.23684 -10.23280 -10.22830
 Alpha  occ. eigenvalues --  -10.22312 -10.22051 -10.22023 -10.21998 -10.20121
 Alpha  occ. eigenvalues --  -10.19644 -10.18620 -10.18558 -10.18252 -10.18247
 Alpha  occ. eigenvalues --  -10.18009  -1.08970  -1.06488  -0.95916  -0.94059
 Alpha  occ. eigenvalues --   -0.90074  -0.88601  -0.83308  -0.82931  -0.80820
 Alpha  occ. eigenvalues --   -0.79352  -0.77217  -0.74597  -0.74058  -0.71857
 Alpha  occ. eigenvalues --   -0.70530  -0.69442  -0.68349  -0.66663  -0.64974
 Alpha  occ. eigenvalues --   -0.62069  -0.61464  -0.60298  -0.59106  -0.56736
 Alpha  occ. eigenvalues --   -0.55865  -0.54701  -0.53834  -0.52486  -0.51619
 Alpha  occ. eigenvalues --   -0.50905  -0.50862  -0.50078  -0.48154  -0.46758
 Alpha  occ. eigenvalues --   -0.46623  -0.46437  -0.45199  -0.45009  -0.44413
 Alpha  occ. eigenvalues --   -0.44358  -0.43981  -0.43071  -0.41970  -0.41818
 Alpha  occ. eigenvalues --   -0.41039  -0.40913  -0.40562  -0.39529  -0.39160
 Alpha  occ. eigenvalues --   -0.38873  -0.38810  -0.38332  -0.37801  -0.37488
 Alpha  occ. eigenvalues --   -0.35823  -0.35287  -0.34740  -0.33374  -0.32566
 Alpha  occ. eigenvalues --   -0.32404  -0.30938  -0.30213  -0.29553  -0.26951
 Alpha  occ. eigenvalues --   -0.26600  -0.25889  -0.23822
 Alpha virt. eigenvalues --   -0.09286  -0.05898  -0.03144  -0.01663   0.01272
 Alpha virt. eigenvalues --    0.03232   0.06770   0.08603   0.09168   0.09469
 Alpha virt. eigenvalues --    0.09862   0.11005   0.11657   0.11829   0.12112

  Beta  occ. eigenvalues --  -19.16806 -14.43243 -14.43186 -14.34980 -10.33059
  Beta  occ. eigenvalues --  -10.29760 -10.26936 -10.26763 -10.25243 -10.25125
  Beta  occ. eigenvalues --  -10.24555 -10.23743 -10.23619 -10.23280 -10.22832
  Beta  occ. eigenvalues --  -10.22295 -10.22236 -10.22023 -10.21981 -10.20140
  Beta  occ. eigenvalues --  -10.19664 -10.18620 -10.18557 -10.18252 -10.18247
  Beta  occ. eigenvalues --  -10.18009  -1.08846  -1.05099  -0.95813  -0.94032
  Beta  occ. eigenvalues --   -0.89639  -0.88299  -0.83221  -0.82694  -0.80036
  Beta  occ. eigenvalues --   -0.79314  -0.77036  -0.74597  -0.74050  -0.71818
  Beta  occ. eigenvalues --   -0.70379  -0.69292  -0.68136  -0.66536  -0.64918
  Beta  occ. eigenvalues --   -0.61880  -0.61463  -0.59925  -0.58956  -0.56717
  Beta  occ. eigenvalues --   -0.55785  -0.54636  -0.53787  -0.52281  -0.51448
  Beta  occ. eigenvalues --   -0.50739  -0.50586  -0.49900  -0.48141  -0.46697
  Beta  occ. eigenvalues --   -0.46548  -0.45174  -0.44948  -0.44531  -0.44355
  Beta  occ. eigenvalues --   -0.44225  -0.43067  -0.42999  -0.41863  -0.41406
  Beta  occ. eigenvalues --   -0.41026  -0.40455  -0.40135  -0.39506  -0.39079
  Beta  occ. eigenvalues --   -0.38709  -0.38340  -0.38259  -0.37590  -0.37167
  Beta  occ. eigenvalues --   -0.35286  -0.34739  -0.33662  -0.33269  -0.32565
  Beta  occ. eigenvalues --   -0.32403  -0.30333  -0.30044  -0.28781  -0.26949
  Beta  occ. eigenvalues --   -0.26101  -0.25685
  Beta virt. eigenvalues --   -0.16637  -0.08820  -0.05387  -0.01539  -0.00689
  Beta virt. eigenvalues --    0.01976   0.03681   0.06781   0.08604   0.09173
  Beta virt. eigenvalues --    0.09480   0.09901   0.11070   0.11852   0.12155

 Mulliken charges and spin densities:
               1          2
     1  C    0.249750   0.010021
     2  C    0.351129   0.012201
     3  C   -0.094557  -0.001951
     4  C   -0.108561   0.011821
     5  C   -0.157903   0.012873
     6  C    0.098705  -0.000980
     7  C    0.619183  -0.041319
     8  H    0.147945  -0.000044
     9  H    0.134234  -0.000602
    10  H    0.134392  -0.000582
    11  N   -0.653812   0.028054
    12  C    0.363675  -0.014073
    13  C    0.081013   0.193636
    14  C   -0.143053  -0.053486
    15  C    0.126189   0.357902
    16  C   -0.142646  -0.159941
    17  C    0.103876   0.287348
    18  H    0.145985   0.001290
    19  H    0.131814   0.004931
    20  C   -0.387998  -0.022811
    21  H    0.155389   0.017193
    22  H    0.157401   0.018821
    23  H    0.141360   0.000202
    24  C   -0.377971  -0.020360
    25  H    0.149075   0.012866
    26  H    0.150936   0.014130
    27  H    0.134122   0.000178
    28  O   -0.557108   0.307654
    29  N   -0.654170   0.028536
    30  H    0.327823  -0.000914
    31  C    0.170368  -0.000544
    32  H    0.125348  -0.000009
    33  N   -0.491839   0.000463
    34  C    0.058033  -0.000017
    35  C   -0.178668   0.000045
    36  C   -0.182374   0.000038
    37  H    0.095497  -0.000003
    38  C   -0.186436   0.000009
    39  H    0.103402  -0.000001
    40  H    0.100327   0.000001
    41  C   -0.187131   0.000007
    42  H    0.104452  -0.000001
    43  H    0.100557   0.000002
    44  C   -0.180230  -0.000001
    45  H    0.098242   0.000006
    46  H    0.098847  -0.000001
    47  H    0.098150   0.000005
    48  H    0.098700  -0.000000
    49  H    0.095421  -0.000000
    50  H    0.096559  -0.000000
    51  H    0.336561  -0.002596
 Sum of Mulliken charges =   1.00000   1.00000

 Dipole moment (field-independent basis, Debye):
    X=             -1.1126    Y=              3.2330    Z=              1.9738  Tot=              3.9480
 Quadrupole moment (field-independent basis, Debye-Ang):
   XX=           -118.7873   YY=            -81.0879   ZZ=           -151.6898
   XY=              7.5130   XZ=             -0.2820   YZ=             -1.4633

  Exact polarizability: 460.137   6.238 585.557  11.403 -14.727 177.409
 Approx polarizability: 504.340 -33.466 612.556  14.708 -17.074 200.769

                      1                      2                      3
                      A                      A                      A
 Frequencies --     32.2104                41.5113                61.9062
 Red. masses --      4.3448                 4.4976                 4.5122
 Frc consts  --      0.0027                 0.0046                 0.0102
 IR Inten    --      1.7760                 2.1991                 1.5571

                      4                      5                      6
                      A                      A                      A
 Frequencies --     67.9275                78.7774                91.7624
 Red. masses --      4.8484                 2.9398                 3.5676
 Frc consts  --      0.0132                 0.0107                 0.0177
 IR Inten    --      1.1237                 0.1205                 2.0707

                      7                      8                      9
                      A                      A                      A
 Frequencies --    109.4031               117.8196               125.8642
 Red. masses --      1.1604                 4.5506                 3.8579
 Frc consts  --      0.0082                 0.0372                 0.0360
 IR Inten    --      0.0141                 3.5093                 3.9368

                     10                     11                     12
                      A                      A                      A
 Frequencies --    154.1474               164.2598               182.6801
 Red. masses --      4.3198                 2.0423                 1.9655
 Frc consts  --      0.0605                 0.0325                 0.0386
 IR Inten    --      0.4747                 0.3229                 2.5003

                     13                     14                     15
                      A                      A                      A
 Frequencies --    205.5438               226.6709               234.0552
 Red. masses --      3.4249                 2.3316                 3.0458
 Frc consts  --      0.0853                 0.0706                 0.0983
 IR Inten    --      0.9112                 0.9750                 0.2115

                     16                     17                     18
                      A                      A                      A
 Frequencies --    236.2803               254.7227               256.5193
 Red. masses --      3.4682                 1.9069                 4.2121
 Frc consts  --      0.1141                 0.0729                 0.1633
 IR Inten    --      6.6248                 0.7649                 2.1155

                     19                     20                     21
                      A                      A                      A
 Frequencies --    294.6358               306.9623               319.3073
 Red. masses --      3.6250                 4.8704                 3.5245
 Frc consts  --      0.1854                 0.2704                 0.2117
 IR Inten    --      3.4760                 3.4858                13.3109

                     22                     23                     24
                      A                      A                      A
 Frequencies --    336.6811               366.5003               377.3280
 Red. masses --      2.2140                 4.4845                 3.8289
 Frc consts  --      0.1479                 0.3549                 0.3212
 IR Inten    --      3.6324                 1.1774                 4.6395

                     25                     26                     27
                      A                      A                      A
 Frequencies --    392.9503               400.0632               442.0826
 Red. masses --      4.6615                 4.0334                 3.7921
 Frc consts  --      0.4241                 0.3803                 0.4366
 IR Inten    --      4.8837                22.1066                 6.2319

                     28                     29                     30
                      A                      A                      A
 Frequencies --    453.2615               458.1950               490.1474
 Red. masses --      3.3776                 5.7963                 2.8107
 Frc consts  --      0.4088                 0.7170                 0.3979
 IR Inten    --      0.4645                 9.8556                 3.2239

                     31                     32                     33
                      A                      A                      A
 Frequencies --    499.1670               518.3232               524.2995
 Red. masses --      4.5261                 2.0587                 4.6216
 Frc consts  --      0.6645                 0.3259                 0.7485
 IR Inten    --      1.2453                 9.1721                 0.8601

                     34                     35                     36
                      A                      A                      A
 Frequencies --    555.1454               558.6954               564.1647
 Red. masses --      3.3261                 3.2393                 3.5009
 Frc consts  --      0.6039                 0.5957                 0.6565
 IR Inten    --     11.7097                 5.8136                 0.3876

                     37                     38                     39
                      A                      A                      A
 Frequencies --    604.3601               630.7846               633.1484
 Red. masses --      5.1233                 4.6636                 5.1851
 Frc consts  --      1.1025                 1.0933                 1.2247
 IR Inten    --      0.3415                 0.8000                27.0933

                     40                     41                     42
                      A                      A                      A
 Frequencies --    659.6659               710.1853               748.4527
 Red. masses --      4.9983                 3.4651                 1.4440
 Frc consts  --      1.2815                 1.0297                 0.4766
 IR Inten    --     39.4745                 6.6474                 5.1103

                     43                     44                     45
                      A                      A                      A
 Frequencies --    755.4092               762.1907               779.1584
 Red. masses --      4.4089                 2.3310                 4.3775
 Frc consts  --      1.4823                 0.7978                 1.5658
 IR Inten    --     25.4646                11.4806                 0.5555

                     46                     47                     48
                      A                      A                      A
 Frequencies --    799.5862               800.9997               807.1746
 Red. masses --      2.4637                 2.5106                 1.7318
 Frc consts  --      0.9281                 0.9491                 0.6648
 IR Inten    --     16.2628                49.4723                67.6189

                     49                     50                     51
                      A                      A                      A
 Frequencies --    809.3781               814.5708               845.9017
 Red. masses --      1.5583                 1.4043                 3.9184
 Frc consts  --      0.6015                 0.5490                 1.6520
 IR Inten    --     57.8607               131.5699                16.3869

                     52                     53                     54
                      A                      A                      A
 Frequencies --    852.9423               895.1994               897.4914
 Red. masses --      2.5518                 1.3451                 1.6344
 Frc consts  --      1.0938                 0.6351                 0.7757
 IR Inten    --     11.8529                25.6074                 2.1627

                     55                     56                     57
                      A                      A                      A
 Frequencies --    903.4446               908.4334               928.4905
 Red. masses --      1.9618                 2.9239                 1.3362
 Frc consts  --      0.9434                 1.4217                 0.6787
 IR Inten    --      9.9667                 3.5117                 1.7106

                     58                     59                     60
                      A                      A                      A
 Frequencies --    935.2986               945.2938               975.8837
 Red. masses --      1.4007                 1.5602                 4.1553
 Frc consts  --      0.7219                 0.8214                 2.3316
 IR Inten    --      5.7822                 0.0892                 0.9132

                     61                     62                     63
                      A                      A                      A
 Frequencies --    983.4049               995.4246              1000.4430
 Red. masses --      2.8907                 2.2311                 1.2936
 Frc consts  --      1.6471                 1.3025                 0.7628
 IR Inten    --      2.7819                 5.7893                 0.3815

                     64                     65                     66
                      A                      A                      A
 Frequencies --   1025.6609              1027.8921              1037.4283
 Red. masses --      1.5889                 1.7146                 1.7914
 Frc consts  --      0.9848                 1.0673                 1.1359
 IR Inten    --      7.4079                45.6005                 9.3221

                     67                     68                     69
                      A                      A                      A
 Frequencies --   1040.3520              1047.2657              1055.3214
 Red. masses --      2.0824                 1.5746                 1.5275
 Frc consts  --      1.3279                 1.0175                 1.0023
 IR Inten    --     58.5245                19.8743                 7.2659

                     70                     71                     72
                      A                      A                      A
 Frequencies --   1068.4052              1071.7756              1082.4610
 Red. masses --      1.5263                 2.4127                 2.0928
 Frc consts  --      1.0265                 1.6329                 1.4448
 IR Inten    --      3.2728                18.1310               156.7001

                     73                     74                     75
                      A                      A                      A
 Frequencies --   1093.6789              1098.4748              1109.3224
 Red. masses --      1.2499                 2.6185                 2.0025
 Frc consts  --      0.8809                 1.8616                 1.4519
 IR Inten    --      0.6078                25.0851                 1.8489

                     76                     77                     78
                      A                      A                      A
 Frequencies --   1141.0033              1168.5882              1194.9129
 Red. masses --      2.0152                 2.3142                 1.4488
 Frc consts  --      1.5457                 1.8620                 1.2188
 IR Inten    --     20.2770                12.6872                35.6085

                     79                     80                     81
                      A                      A                      A
 Frequencies --   1204.4354              1207.9119              1229.3848
 Red. masses --      1.5053                 1.7292                 1.5160
 Frc consts  --      1.2866                 1.4865                 1.3500
 IR Inten    --      1.8813               108.0377                31.9537

                     82                     83                     84
                      A                      A                      A
 Frequencies --   1273.6754              1276.7870              1282.6302
 Red. masses --      1.8966                 1.3175                 1.8486
 Frc consts  --      1.8128                 1.2654                 1.7919
 IR Inten    --     59.1119                 4.7284                 8.5327

                     85                     86                     87
                      A                      A                      A
 Frequencies --   1290.5165              1297.2608              1299.7842
 Red. masses --      1.2714                 2.5299                 1.3790
 Frc consts  --      1.2475                 2.5085                 1.3727
 IR Inten    --      3.2200                 1.6714                 8.9975

                     88                     89                     90
                      A                      A                      A
 Frequencies --   1331.7446              1341.4617              1343.9001
 Red. masses --      3.1358                 1.4658                 1.9799
 Frc consts  --      3.2768                 1.5541                 2.1068
 IR Inten    --     95.6812                 2.9242                 3.8401

                     91                     92                     93
                      A                      A                      A
 Frequencies --   1355.7941              1370.9494              1372.4023
 Red. masses --      1.8407                 2.5658                 1.4326
 Frc consts  --      1.9935                 2.8413                 1.5898
 IR Inten    --     16.0658                 1.5232                 2.5934

                     94                     95                     96
                      A                      A                      A
 Frequencies --   1388.2104              1391.3045              1393.1311
 Red. masses --      1.5807                 1.4282                 1.4465
 Frc consts  --      1.7948                 1.6288                 1.6541
 IR Inten    --      0.6962                 2.1700                 6.2282

                     97                     98                     99
                      A                      A                      A
 Frequencies --   1394.7774              1401.5336              1410.3779
 Red. masses --      1.3782                 1.5992                 1.6180
 Frc consts  --      1.5796                 1.8508                 1.8963
 IR Inten    --      0.3063                30.3124                 5.2717

                    100                    101                    102
                      A                      A                      A
 Frequencies --   1414.9895              1417.9737              1432.4417
 Red. masses --      1.7443                 1.8959                 2.0287
 Frc consts  --      2.0577                 2.2459                 2.4526
 IR Inten    --     48.4080                12.8272                95.6683

                    103                    104                    105
                      A                      A                      A
 Frequencies --   1450.3309              1468.1107              1469.5976
 Red. masses --      1.8605                 1.0885                 1.3545
 Frc consts  --      2.3057                 1.3823                 1.7236
 IR Inten    --     31.3285                20.2582                18.6596

                    106                    107                    108
                      A                      A                      A
 Frequencies --   1472.2268              1481.2809              1484.2992
 Red. masses --      1.9135                 1.0979                 1.0964
 Frc consts  --      2.4435                 1.4194                 1.4232
 IR Inten    --     22.7610                12.3270                 2.9961

                    109                    110                    111
                      A                      A                      A
 Frequencies --   1486.7255              1488.0433              1493.0665
 Red. masses --      2.3995                 1.0933                 1.0986
 Frc consts  --      3.1249                 1.4264                 1.4429
 IR Inten    --     44.4026                 0.6263                 6.5759

                    112                    113                    114
                      A                      A                      A
 Frequencies --   1498.5048              1503.9918              1513.2722
 Red. masses --      1.0990                 2.9875                 1.1014
 Frc consts  --      1.4539                 3.9816                 1.4860
 IR Inten    --      6.2355               133.2013                 3.4571

                    115                    116                    117
                      A                      A                      A
 Frequencies --   1525.7210              1553.5344              1565.5503
 Red. masses --      2.8008                 4.7094                 4.4712
 Frc consts  --      3.8413                 6.6966                 6.4566
 IR Inten    --     45.6596               147.5306                87.4842

                    118                    119                    120
                      A                      A                      A
 Frequencies --   1596.7952              1641.6676              1663.4920
 Red. masses --      6.4790                 5.1387                 7.5384
 Frc consts  --      9.7333                 8.1596                12.2905
 IR Inten    --    305.1683                76.9062                34.1685

                    121                    122                    123
                      A                      A                      A
 Frequencies --   1671.3730              1704.8161              3038.4598
 Red. masses --      6.7105                 6.9461                 1.0669
 Frc consts  --     11.0446                11.8945                 5.8035
 IR Inten    --    158.8972                93.0552                36.8120

                    124                    125                    126
                      A                      A                      A
 Frequencies --   3040.0751              3043.6856              3044.4218
 Red. masses --      1.0619                 1.0605                 1.0662
 Frc consts  --      5.7824                 5.7883                 5.8221
 IR Inten    --     46.9431                51.4338                13.0404

                    127                    128                    129
                      A                      A                      A
 Frequencies --   3047.7991              3053.1759              3057.3006
 Red. masses --      1.0663                 1.0386                 1.0748
 Frc consts  --      5.8356                 5.7043                 5.9189
 IR Inten    --     22.5700                 1.3254               103.9858

                    130                    131                    132
                      A                      A                      A
 Frequencies --   3067.4808              3086.0405              3088.3306
 Red. masses --      1.0374                 1.0980                 1.0980
 Frc consts  --      5.7512                 6.1609                 6.1700
 IR Inten    --     10.1528                81.4387                90.0513

                    133                    134                    135
                      A                      A                      A
 Frequencies --   3091.0917              3093.9542              3096.4766
 Red. masses --      1.1039                 1.0892                 1.1043
 Frc consts  --      6.2143                 6.1432                 6.2381
 IR Inten    --     67.0745                42.5433               110.2741

                    136                    137                    138
                      A                      A                      A
 Frequencies --   3104.0836              3110.8124              3125.2126
 Red. masses --      1.1019                 1.0990                 1.0988
 Frc consts  --      6.2555                 6.2662                 6.3231
 IR Inten    --    136.5640                 7.5183                 9.7674

                    139                    140                    141
                      A                      A                      A
 Frequencies --   3162.0416              3169.5566              3210.1255
 Red. masses --      1.1021                 1.1031                 1.0912
 Frc consts  --      6.4923                 6.5291                 6.6253
 IR Inten    --     30.9201                26.9761                20.1888

                    142                    143                    144
                      A                      A                      A
 Frequencies --   3220.1594              3220.2714              3232.4037
 Red. masses --      1.0912                 1.0889                 1.0920
 Frc consts  --      6.6664                 6.6531                 6.7221
 IR Inten    --      5.0974                 4.6692                11.3356

                    145                    146                    147
                      A                      A                      A
 Frequencies --   3252.7222              3487.9313              3501.7781
 Red. masses --      1.0957                 1.0816                 1.0872
 Frc consts  --      6.8304                 7.7529                 7.8550
 IR Inten    --      6.5309               779.4057                56.7299

 - Thermochemistry -
 -------------------
 Temperature   298.150 Kelvin.  Pressure   1.00000 Atm.
 Atom     1 has atomic number  6 and mass  12.00000

 Molecular mass:   347.19976 amu.
 Principal axes and moments of inertia in atomic units:
                           1         2         3
     Eigenvalues --  6430.83501********************
           X            0.82593  -0.56358  -0.01488
           Y            0.56374   0.82529   0.03296
           Z           -0.00630  -0.03561   0.99935
 This molecule is an asymmetric top.
 Rotational symmetry number  1.
 Warning -- assumption of classical behavior for rotation
           may cause significant error
 Rotational temperatures (Kelvin)      0.01347     0.00516     0.00386
 Rotational constants (GHZ):           0.28064     0.10745     0.08034
 Zero-point vibrational energy    1140318.7 (Joules/Mol)
                                  272.54271 (Kcal/Mol)
 Warning -- explicit consideration of  37 degrees of freedom as
           vibrations may cause significant error
 Vibrational temperatures:     46.34    59.73    89.07    97.73   113.34
          (Kelvin)            132.03   157.41   169.52   181.09   221.78
                              236.33   262.84   295.73   326.13   336.75
                              339.95   366.49   369.07   423.92   441.65
                              459.41   484.41   527.31   542.89   565.37
                              575.60   636.06   652.14   659.24   705.21
                              718.19   745.75   754.35   798.73   803.84
                              811.71   869.54   907.56   910.96   949.11
                             1021.80  1076.86  1086.87  1096.62  1121.04
                             1150.43  1152.46  1161.34  1164.51  1171.99
                             1217.06  1227.19  1287.99  1291.29  1299.86
                             1307.03  1335.89  1345.69  1360.07  1404.08
                             1414.90  1432.19  1439.41  1475.70  1478.91
                             1492.63  1496.83  1506.78  1518.37  1537.20
                             1542.05  1557.42  1573.56  1580.46  1596.07
                             1641.65  1681.34  1719.21  1732.91  1737.92
                             1768.81  1832.53  1837.01  1845.42  1856.77
                             1866.47  1870.10  1916.08  1930.06  1933.57
                             1950.69  1972.49  1974.58  1997.33  2001.78
                             2004.40  2006.77  2016.49  2029.22  2035.85
                             2040.15  2060.96  2086.70  2112.28  2114.42
                             2118.21  2131.23  2135.58  2139.07  2140.96
                             2148.19  2156.01  2163.91  2177.26  2195.17
                             2235.19  2252.48  2297.43  2361.99  2393.39
                             2404.73  2452.85  4371.67  4373.99  4379.18
                             4380.24  4385.10  4392.84  4398.77  4413.42
                             4440.12  4443.42  4447.39  4451.51  4455.14
                             4466.08  4475.77  4496.48  4549.47  4560.28
                             4618.65  4633.09  4633.25  4650.71  4679.94
                             5018.36  5038.28

 Zero-point correction=                           0.434324 (Hartree/Particle)
 Thermal correction to Energy=                    0.456935
 Thermal correction to Enthalpy=                  0.457879
 Thermal correction to Gibbs Free Energy=         0.382256
 Sum of electronic and zero-point Energies=          -1092.462749
 Sum of electronic and thermal Energies=             -1092.440138
 Sum of electronic and thermal Enthalpies=           -1092.439194
 Sum of electronic and thermal Free Energies=        -1092.514817

                     E (Thermal)             CV                S
                      KCal/Mol        Cal/Mol-Kelvin    Cal/Mol-Kelvin
 Total                  286.731             90.715            159.163
 Electronic               0.000              0.000              1.377
 Translational            0.889              2.981             43.428
 Rotational               0.889              2.981             36.138
 Vibrational            284.954             84.753             78.220
 Vibration     1          0.594              1.983              5.688
 Vibration     2          0.594              1.981              5.186
 Vibration     3          0.597              1.972              4.395
 Vibration     4          0.598              1.970              4.213
 Vibration     5          0.600              1.963              3.921
 Vibration     6          0.602              1.955              3.622
 Vibration     7          0.606              1.942              3.279
 Vibration     8          0.608              1.935              3.136
 Vibration     9          0.611              1.927              3.008
 Vibration    10          0.620              1.898              2.620
 Vibration    11          0.623              1.886              2.500
 Vibration    12          0.630              1.863              2.301
 Vibration    13          0.640              1.832              2.083
 Vibration    14          0.650              1.800              1.905
 Vibration    15          0.654              1.789              1.848
 Vibration    16          0.655              1.785              1.831
 Vibration    17          0.665              1.755              1.698
 Vibration    18          0.666              1.752              1.685
 Vibration    19          0.689              1.684              1.447
 Vibration    20          0.697              1.660              1.379
 Vibration    21          0.705              1.637              1.314
 Vibration    22          0.717              1.602              1.228
 Vibration    23          0.739              1.541              1.094
 Vibration    24          0.748              1.518              1.050
 Vibration    25          0.760              1.485              0.989
 Vibration    26          0.766              1.470              0.962
 Vibration    27          0.802              1.378              0.820
 Vibration    28          0.812              1.354              0.786
 Vibration    29          0.816              1.343              0.771
 Vibration    30          0.846              1.272              0.683
 Vibration    31          0.855              1.252              0.660
 Vibration    32          0.873              1.209              0.614
 Vibration    33          0.879              1.196              0.600
 Vibration    34          0.911              1.128              0.534
 Vibration    35          0.914              1.121              0.526
 Vibration    36          0.920              1.109              0.516
 Vibration    37          0.963              1.023              0.442

 Optimization completed.
    -- Stationary point found.
 Normal termination of Gaussian 16 at Fri Dec 14 12:08:03 2018.
