 Gaussian 16, Revision A.03,
 Gaussian 16:  ES64L-G16RevA.03 25-Dec-2016

 ----------------------------------------------------------------------
 #p opt=(tight,ts,calcfc,noeigentest) freq=internalmodes b3lyp/6-31g(d,
 p) scrf=(cpcm,solvent=dichloromethane,read) nosymm empiricaldispersion
 =gd3bj int=grid=ultrafine
 ----------------------------------------------------------------------

 cyclohexylimine diBIP oxidized, first proton transition state optimiza
 tion
 ----------------------------------------------------------------------
 Symbolic Z-matrix:
 Charge =  1 Multiplicity = 2

 SCF Done:  E(UB3LYP) =  -1707.53773287     A.U. after   20 cycles

 Alpha  occ. eigenvalues --  -19.23073 -14.42240 -14.39834 -14.37851 -14.34349
 Alpha  occ. eigenvalues --  -14.33701 -10.32673 -10.30787 -10.28272 -10.26769
 Alpha  occ. eigenvalues --  -10.26622 -10.25662 -10.25067 -10.23985 -10.23931
 Alpha  occ. eigenvalues --  -10.23929 -10.23862 -10.23205 -10.22955 -10.22796
 Alpha  occ. eigenvalues --  -10.22596 -10.22418 -10.22172 -10.22077 -10.21843
 Alpha  occ. eigenvalues --  -10.21409 -10.21308 -10.20637 -10.20580 -10.20034
 Alpha  occ. eigenvalues --  -10.18752 -10.18735 -10.18417 -10.18203 -10.18178
 Alpha  occ. eigenvalues --  -10.18035 -10.18031 -10.18009 -10.17940 -10.17936
 Alpha  occ. eigenvalues --  -10.17736  -1.12613  -1.06386  -1.03557  -0.93254
 Alpha  occ. eigenvalues --   -0.92769  -0.91089  -0.89486  -0.88706  -0.86180
 Alpha  occ. eigenvalues --   -0.85103  -0.84359  -0.82511  -0.80091  -0.79673
 Alpha  occ. eigenvalues --   -0.77295  -0.76664  -0.75955  -0.74454  -0.74219
 Alpha  occ. eigenvalues --   -0.73167  -0.70935  -0.69858  -0.69770  -0.69337
 Alpha  occ. eigenvalues --   -0.68240  -0.67168  -0.66049  -0.65802  -0.65201
 Alpha  occ. eigenvalues --   -0.63805  -0.62658  -0.62302  -0.61329  -0.60907
 Alpha  occ. eigenvalues --   -0.59154  -0.58580  -0.58282  -0.56174  -0.55582
 Alpha  occ. eigenvalues --   -0.55066  -0.53927  -0.52368  -0.52258  -0.51755
 Alpha  occ. eigenvalues --   -0.50497  -0.49949  -0.49735  -0.49411  -0.48601
 Alpha  occ. eigenvalues --   -0.47821  -0.47552  -0.47484  -0.46688  -0.46301
 Alpha  occ. eigenvalues --   -0.46208  -0.45369  -0.45301  -0.45120  -0.44832
 Alpha  occ. eigenvalues --   -0.44505  -0.44385  -0.43989  -0.43705  -0.43460
 Alpha  occ. eigenvalues --   -0.42405  -0.42067  -0.41096  -0.40954  -0.40535
 Alpha  occ. eigenvalues --   -0.39990  -0.39752  -0.39463  -0.39213  -0.38985
 Alpha  occ. eigenvalues --   -0.38831  -0.38505  -0.37923  -0.37868  -0.37765
 Alpha  occ. eigenvalues --   -0.37625  -0.37479  -0.37022  -0.36523  -0.36353
 Alpha  occ. eigenvalues --   -0.35215  -0.34846  -0.34711  -0.34669  -0.34284
 Alpha  occ. eigenvalues --   -0.34234  -0.34059  -0.33821  -0.33432  -0.32108
 Alpha  occ. eigenvalues --   -0.32062  -0.32009  -0.31305  -0.30738  -0.30593
 Alpha  occ. eigenvalues --   -0.29185  -0.27917  -0.26876  -0.25912  -0.24835
 Alpha  occ. eigenvalues --   -0.23711  -0.23156
 Alpha virt. eigenvalues --   -0.09146  -0.06674  -0.04278  -0.03834  -0.01407
 Alpha virt. eigenvalues --    0.00716   0.01832   0.03912   0.06357   0.06724
 Alpha virt. eigenvalues --    0.07754   0.08365   0.08807   0.09006   0.09833

  Beta  occ. eigenvalues --  -19.22594 -14.42197 -14.39838 -14.37741 -14.34351
  Beta  occ. eigenvalues --  -14.33702 -10.32390 -10.30830 -10.28267 -10.26667
  Beta  occ. eigenvalues --  -10.26363 -10.25614 -10.24680 -10.23985 -10.23929
  Beta  occ. eigenvalues --  -10.23888 -10.23854 -10.23316 -10.22959 -10.22795
  Beta  occ. eigenvalues --  -10.22520 -10.22428 -10.22174 -10.22073 -10.21812
  Beta  occ. eigenvalues --  -10.21409 -10.21308 -10.20637 -10.20579 -10.20035
  Beta  occ. eigenvalues --  -10.18715 -10.18700 -10.18417 -10.18203 -10.18178
  Beta  occ. eigenvalues --  -10.18031 -10.18027 -10.18001 -10.17940 -10.17936
  Beta  occ. eigenvalues --  -10.17736  -1.11669  -1.06218  -1.03556  -0.93245
  Beta  occ. eigenvalues --   -0.92593  -0.90541  -0.89475  -0.88547  -0.86156
  Beta  occ. eigenvalues --   -0.84907  -0.84017  -0.82510  -0.79999  -0.79566
  Beta  occ. eigenvalues --   -0.77292  -0.76412  -0.75304  -0.74420  -0.74219
  Beta  occ. eigenvalues --   -0.73166  -0.70795  -0.69750  -0.69733  -0.69304
  Beta  occ. eigenvalues --   -0.68151  -0.67084  -0.65850  -0.65739  -0.64976
  Beta  occ. eigenvalues --   -0.63671  -0.62573  -0.62291  -0.61293  -0.60892
  Beta  occ. eigenvalues --   -0.59105  -0.58388  -0.58195  -0.56150  -0.55464
  Beta  occ. eigenvalues --   -0.54974  -0.53842  -0.52358  -0.52032  -0.51713
  Beta  occ. eigenvalues --   -0.50439  -0.49647  -0.49359  -0.49144  -0.48569
  Beta  occ. eigenvalues --   -0.47741  -0.47434  -0.46695  -0.46584  -0.46121
  Beta  occ. eigenvalues --   -0.45627  -0.45289  -0.44982  -0.44938  -0.44519
  Beta  occ. eigenvalues --   -0.44493  -0.44319  -0.43987  -0.43695  -0.43356
  Beta  occ. eigenvalues --   -0.42404  -0.41910  -0.40886  -0.40560  -0.40528
  Beta  occ. eigenvalues --   -0.39916  -0.39709  -0.39299  -0.39166  -0.38775
  Beta  occ. eigenvalues --   -0.38491  -0.38483  -0.37922  -0.37834  -0.37714
  Beta  occ. eigenvalues --   -0.37570  -0.37243  -0.36691  -0.36224  -0.35960
  Beta  occ. eigenvalues --   -0.34932  -0.34745  -0.34586  -0.34433  -0.34282
  Beta  occ. eigenvalues --   -0.33954  -0.33881  -0.33721  -0.33376  -0.32068
  Beta  occ. eigenvalues --   -0.32010  -0.31905  -0.31285  -0.30584  -0.29936
  Beta  occ. eigenvalues --   -0.29157  -0.27755  -0.25913  -0.25467  -0.23718
  Beta  occ. eigenvalues --   -0.23046
  Beta virt. eigenvalues --   -0.19196  -0.08503  -0.06208  -0.03491  -0.02275
  Beta virt. eigenvalues --   -0.00785   0.00787   0.02388   0.04162   0.06484
  Beta virt. eigenvalues --    0.06734   0.07776   0.08381   0.08852   0.09015

 Mulliken charges and spin densities:
               1          2
     1  C    0.256350   0.001218
     2  C    0.252441   0.000595
     3  C   -0.133227   0.000014
     4  C   -0.118013  -0.000252
     5  C   -0.175741   0.000947
     6  C    0.096434  -0.000686
     7  C    0.533929   0.003051
     8  H    0.116779  -0.000003
     9  H    0.113567   0.000010
    10  H    0.117449  -0.000037
    11  C    0.257331   0.072058
    12  C    0.294881   0.033032
    13  C   -0.101807   0.000966
    14  C   -0.110027   0.021050
    15  C   -0.157125   0.059928
    16  C    0.133803  -0.025315
    17  C    0.593778  -0.040071
    18  H    0.137906  -0.000389
    19  H    0.132807  -0.001191
    20  H    0.136915  -0.002531
    21  N   -0.677918  -0.001196
    22  C    0.327254   0.190665
    23  C    0.104580   0.193120
    24  C   -0.170080  -0.095338
    25  C    0.169902   0.286779
    26  C   -0.156339  -0.012878
    27  C    0.145891   0.053463
    28  H    0.145774   0.002584
    29  H    0.141396  -0.000500
    30  C   -0.045804  -0.016048
    31  C   -0.022288  -0.003445
    32  O   -0.516239   0.168133
    33  N   -0.667941   0.019385
    34  N   -0.722458   0.057008
    35  H    0.322268  -0.000767
    36  N   -0.661129  -0.001616
    37  H    0.301510   0.000053
    38  C    0.153181   0.000178
    39  H    0.109571  -0.000005
    40  N   -0.494992  -0.000213
    41  C    0.063444   0.000013
    42  C   -0.173557  -0.000014
    43  C   -0.187663  -0.000006
    44  H    0.092726  -0.000002
    45  C   -0.185002  -0.000003
    46  H    0.099635   0.000000
    47  H    0.097270   0.000000
    48  C   -0.188684  -0.000000
    49  H    0.105153   0.000000
    50  H    0.099064  -0.000000
    51  C   -0.179792   0.000000
    52  H    0.096542  -0.000001
    53  H    0.097581   0.000000
    54  H    0.095608  -0.000001
    55  H    0.097163  -0.000000
    56  H    0.093789   0.000000
    57  H    0.095683   0.000000
    58  H    0.402419  -0.004010
    59  C   -0.313093   0.012742
    60  H    0.118839  -0.000430
    61  H    0.123758   0.004171
    62  H    0.118850   0.000003
    63  C   -0.324996   0.000224
    64  H    0.118602   0.000276
    65  H    0.118254   0.000302
    66  H    0.117848  -0.000334
    67  C   -0.312133   0.013247
    68  H    0.124066   0.004686
    69  H    0.118965  -0.000425
    70  H    0.118848  -0.000050
    71  C   -0.327728  -0.000223
    72  H    0.115935  -0.000115
    73  H    0.117251   0.000258
    74  H    0.117049   0.000201
    75  C   -0.317948   0.004103
    76  H    0.111455  -0.000170
    77  H    0.121812  -0.000444
    78  H    0.116179   0.000489
    79  C   -0.317004   0.003935
    80  H    0.111276  -0.000149
    81  H    0.115838   0.000405
    82  H    0.122127  -0.000434
 Sum of Mulliken charges =   1.00000   1.00000

 Dipole moment (field-independent basis, Debye):
    X=            -17.8077    Y=              1.4272    Z=              0.2703  Tot=             17.8668
 Quadrupole moment (field-independent basis, Debye-Ang):
   XX=            -44.8858   YY=           -195.0726   ZZ=           -243.5136
   XY=            -23.0083   XZ=              4.0094   YZ=             -2.4432

  Exact polarizability:   0.000   0.000   0.000   0.000   0.000   0.000
 Approx polarizability:1055.522-153.211 993.539  47.908 -39.521 342.443

 Optimization completed.
    -- Stationary point found.
 Normal termination of Gaussian 16 at Fri Dec 21 16:16:31 2018.

 ----------------------------------------------------------------------
 #P Geom=AllCheck Guess=TCheck SCRF=Check GenChk UB3LYP/6-31G(d,p) Freq
 ----------------------------------------------------------------------

 ----------------------------------------------------------------------
 cyclohexylimine diBIP oxidized, first proton transition state optimiza
 tion
 ----------------------------------------------------------------------
 Charge =  1 Multiplicity = 2

                          Input orientation:
 ---------------------------------------------------------------------
 Center     Atomic      Atomic             Coordinates (Angstroms)
 Number     Number       Type             X           Y           Z
 ---------------------------------------------------------------------
      1          6           0        1.633350    1.237324    0.230952
      2          6           0        0.406923    1.935607    0.153662
      3          6           0        0.410015    3.331648    0.028175
      4          6           0        1.643007    3.977431   -0.017863
      5          6           0        2.853713    3.265510    0.064979
      6          6           0        2.884154    1.872232    0.188737
      7          6           0       -0.070738   -0.167397    0.320057
      8          1           0       -0.519289    3.884904   -0.033198
      9          1           0        1.675999    5.056040   -0.116162
     10          1           0        3.792957    3.806505    0.028454
     11          6           0       -2.225057   -1.371225    0.317510
     12          6           0       -3.032496   -2.541774    0.333197
     13          6           0       -2.437321   -3.807552    0.455814
     14          6           0       -1.055336   -3.848074    0.556488
     15          6           0       -0.260269   -2.679064    0.524139
     16          6           0       -0.821027   -1.409006    0.395049
     17          6           0       -4.355401   -0.820855    0.159684
     18          1           0       -3.038438   -4.707084    0.472487
     19          1           0       -0.558507   -4.804615    0.660173
     20          1           0        0.815302   -2.780908    0.605495
     21          7           0       -0.642341    1.031878    0.215079
     22          6           0       -6.818189   -0.801049   -0.131523
     23          6           0       -5.570838   -0.065621    0.042393
     24          6           0       -5.591904    1.324373    0.093181
     25          6           0       -6.794338    2.020378   -0.022479
     26          6           0       -7.999393    1.276023   -0.223698
     27          6           0       -8.062875   -0.094370   -0.291251
     28          1           0       -4.663763    1.859462    0.237811
     29          1           0       -8.915616    1.838256   -0.324427
     30          6           0       -6.884482    3.533811    0.078438
     31          6           0       -9.374041   -0.847392   -0.524402
     32          8           0       -6.809974   -2.104073   -0.148693
     33          7           0       -3.085250   -0.314984    0.213861
     34          7           0       -4.344701   -2.162023    0.225935
     35          1           0       -2.747940    0.644666    0.170052
     36          7           0        1.298293   -0.088793    0.335388
     37          1           0        2.003202   -0.816744    0.379284
     38          6           0        4.133165    1.119539    0.269368
     39          1           0        5.048994    1.717797    0.241110
     40          7           0        4.135820   -0.158973    0.359694
     41          6           0        5.424435   -0.863615    0.377316
     42          6           0        5.946202   -1.022732   -1.061527
     43          6           0        6.506836   -0.244721    1.275620
     44          1           0        5.212836   -1.867233    0.765555
     45          6           0        7.230346   -1.857912   -1.100025
     46          1           0        6.140961   -0.020578   -1.463650
     47          1           0        5.167878   -1.472312   -1.685583
     48          6           0        7.775495   -1.106289    1.253034
     49          1           0        6.756916    0.761521    0.922219
     50          1           0        6.122205   -0.142757    2.294837
     51          6           0        8.305465   -1.275770   -0.174752
     52          1           0        7.602859   -1.919624   -2.127163
     53          1           0        7.000442   -2.883372   -0.785081
     54          1           0        8.541035   -0.659890    1.895082
     55          1           0        7.547207   -2.093592    1.673890
     56          1           0        9.192711   -1.916150   -0.176262
     57          1           0        8.617414   -0.296698   -0.559571
     58          1           0       -5.832357   -2.441015    0.005972
     59          6           0       -7.518559    4.092689   -1.215712
     60          1           0       -8.514107    3.682119   -1.394727
     61          1           0       -7.612864    5.177736   -1.125410
     62          1           0       -6.894369    3.870007   -2.083813
     63          6           0       -5.515127    4.193286    0.283514
     64          1           0       -5.040489    3.860932    1.210223
     65          1           0       -4.836801    3.984625   -0.547660
     66          1           0       -5.646141    5.275230    0.346793
     67          6           0       -7.790514    3.884360    1.281686
     68          1           0       -7.889013    4.970237    1.352661
     69          1           0       -8.790717    3.460185    1.175181
     70          1           0       -7.354794    3.516372    2.213209
     71          6           0      -10.552531    0.126081   -0.675724
     72          1           0      -11.459093   -0.447670   -0.878270
     73          1           0      -10.721103    0.704781    0.236525
     74          1           0      -10.404472    0.820826   -1.506421
     75          6           0       -9.268203   -1.674182   -1.825414
     76          1           0       -9.063597   -1.023420   -2.679148
     77          1           0       -8.482614   -2.426570   -1.764565
     78          1           0      -10.219341   -2.181711   -2.006257
     79          6           0       -9.675963   -1.775317    0.673622
     80          1           0       -9.763093   -1.195902    1.596004
     81          1           0      -10.629077   -2.280996    0.498118
     82          1           0       -8.904086   -2.531495    0.807488
 ---------------------------------------------------------------------

 SCF Done:  E(UB3LYP) =  -1707.53773287     A.U. after    1 cycles
