 Gaussian 16, Revision A.03,
 Gaussian 16:  ES64L-G16RevA.03 25-Dec-2016

 ----------------------------------------------------------------------
 #p opt=(calcfc,tight,ts,noeigentest) freq=internalmodes b3lyp/6-31g(d,
 p) scrf=(cpcm,solvent=dichloromethane,read) nosymm guess=read empirica
 ldispersion=gd3bj int=grid=ultrafine
 ----------------------------------------------------------------------

 cyclohexylimine monoBIP oxidized, optimize to transition state of firs
 t proton transferred
 ----------------------------------------------------------------------
 Symbolic Z-matrix:
 Charge =  1 Multiplicity = 2

 SCF Done:  E(UB3LYP) =  -1092.88123496     A.U. after    1 cycles
 Optimization completed.
    -- Stationary point found.
 Normal termination of Gaussian 16 at Sun Dec 16 11:01:08 2018.

 ----------------------------------------------------------------------
 #P Geom=AllCheck Guess=TCheck SCRF=Check GenChk UB3LYP/6-31G(d,p) Freq
 ----------------------------------------------------------------------

 ----------------------------------------------------------------------
 cyclohexylimine monoBIP oxidized, optimize to transition state of firs
 t proton transferred
 ----------------------------------------------------------------------
 Charge =  1 Multiplicity = 2

                          Input orientation:
 ---------------------------------------------------------------------
 Center     Atomic      Atomic             Coordinates (Angstroms)
 Number     Number       Type             X           Y           Z
 ---------------------------------------------------------------------
      1          6           0       -0.424191    2.671740    0.277732
      2          6           0       -1.835682    2.792786    0.237620
      3          6           0       -2.433932    4.058781    0.141547
      4          6           0       -1.585080    5.155900    0.093569
      5          6           0       -0.178679    5.020674    0.136079
      6          6           0        0.442832    3.776169    0.229386
      7          6           0       -1.336685    0.666036    0.369264
      8          1           0       -3.510066    4.168869    0.105523
      9          1           0       -2.007926    6.150438    0.021308
     10          1           0        0.438200    5.910889    0.095889
     11          7           0       -2.365591    1.525508    0.297750
     12          6           0       -2.958184   -1.189148    0.419530
     13          6           0       -1.566044   -0.752745    0.429680
     14          6           0       -0.559056   -1.702807    0.478795
     15          6           0       -0.866807   -3.072047    0.521013
     16          6           0       -2.230640   -3.484783    0.525765
     17          6           0       -3.273484   -2.594493    0.480952
     18          1           0        0.478651   -1.392386    0.479165
     19          1           0       -2.444521   -4.546836    0.569291
     20          6           0        0.214153   -4.101092    0.539564
     21          1           0        1.196401   -3.651878    0.680976
     22          1           0        0.035050   -4.837947    1.327723
     23          1           0        0.216654   -4.653468   -0.407084
     24          6           0       -4.709834   -3.009811    0.485260
     25          1           0       -5.246347   -2.542462    1.315320
     26          1           0       -5.208621   -2.690638   -0.434300
     27          1           0       -4.793742   -4.092576    0.573947
     28          8           0       -3.922550   -0.333742    0.350531
     29          7           0       -0.149329    1.332159    0.361478
     30          1           0        0.812288    0.999127    0.403774
     31          6           0        1.894450    3.603352    0.270844
     32          1           0        2.491136    4.519343    0.216736
     33          7           0        2.409067    2.434119    0.366008
     34          6           0        3.873253    2.314636    0.405526
     35          6           0        4.521994    2.741246   -0.921736
     36          6           0        4.503154    3.078759    1.581638
     37          1           0        4.083049    1.249059    0.550802
     38          6           0        6.037601    2.516367   -0.878442
     39          1           0        4.308768    3.803787   -1.089031
     40          1           0        4.068849    2.184945   -1.747731
     41          6           0        6.017559    2.847426    1.628849
     42          1           0        4.305639    4.150225    1.458179
     43          1           0        4.027201    2.768750    2.516512
     44          6           0        6.678272    3.250156    0.305078
     45          1           0        6.492278    2.837287   -1.820427
     46          1           0        6.234149    1.440867   -0.784161
     47          1           0        6.452761    3.408314    2.461564
     48          1           0        6.214318    1.785780    1.823851
     49          1           0        7.753399    3.049790    0.339762
     50          1           0        6.560505    4.331682    0.161998
     51          1           0       -3.455509    0.696067    0.309977
 ---------------------------------------------------------------------

 SCF Done:  E(UB3LYP) =  -1092.88123496     A.U. after    1 cycles

 Alpha  occ. eigenvalues --  -19.22214 -14.42278 -14.38568 -14.34651 -10.32278
 Alpha  occ. eigenvalues --  -10.30959 -10.26479 -10.26283 -10.25951 -10.25684
 Alpha  occ. eigenvalues --  -10.24983 -10.24683 -10.23699 -10.23051 -10.22822
 Alpha  occ. eigenvalues --  -10.22207 -10.22191 -10.21867 -10.21641 -10.20468
 Alpha  occ. eigenvalues --  -10.20138 -10.18521 -10.18464 -10.18193 -10.18188
 Alpha  occ. eigenvalues --  -10.17959  -1.11695  -1.06511  -0.94417  -0.92637
 Alpha  occ. eigenvalues --   -0.90853  -0.88133  -0.83473  -0.82890  -0.81848
 Alpha  occ. eigenvalues --   -0.78771  -0.76732  -0.74517  -0.73852  -0.72337
 Alpha  occ. eigenvalues --   -0.71255  -0.69119  -0.66989  -0.66033  -0.64150
 Alpha  occ. eigenvalues --   -0.61812  -0.61371  -0.61103  -0.59261  -0.57687
 Alpha  occ. eigenvalues --   -0.56469  -0.54792  -0.53496  -0.52524  -0.51482
 Alpha  occ. eigenvalues --   -0.50073  -0.49912  -0.48624  -0.47854  -0.47527
 Alpha  occ. eigenvalues --   -0.47121  -0.46205  -0.45109  -0.44839  -0.44708
 Alpha  occ. eigenvalues --   -0.44567  -0.44278  -0.42840  -0.42561  -0.42192
 Alpha  occ. eigenvalues --   -0.40918  -0.40826  -0.40738  -0.39671  -0.39211
 Alpha  occ. eigenvalues --   -0.38782  -0.38733  -0.38260  -0.37817  -0.36774
 Alpha  occ. eigenvalues --   -0.35905  -0.35161  -0.34662  -0.32852  -0.32678
 Alpha  occ. eigenvalues --   -0.32455  -0.32332  -0.31017  -0.29886  -0.26888
 Alpha  occ. eigenvalues --   -0.26660  -0.25358  -0.24750
 Alpha virt. eigenvalues --   -0.09036  -0.05751  -0.04380  -0.01151   0.01287
 Alpha virt. eigenvalues --    0.03842   0.07156   0.08666   0.09203   0.09770
 Alpha virt. eigenvalues --    0.10225   0.10727   0.11353   0.11993   0.12223

  Beta  occ. eigenvalues --  -19.21646 -14.42233 -14.38481 -14.34659 -10.32045
  Beta  occ. eigenvalues --  -10.31015 -10.26234 -10.26220 -10.25649 -10.25500
  Beta  occ. eigenvalues --  -10.24979 -10.24509 -10.23793 -10.23129 -10.22840
  Beta  occ. eigenvalues --  -10.22187 -10.22151 -10.21867 -10.21618 -10.20481
  Beta  occ. eigenvalues --  -10.20146 -10.18522 -10.18464 -10.18193 -10.18188
  Beta  occ. eigenvalues --  -10.17959  -1.10638  -1.06359  -0.94393  -0.92508
  Beta  occ. eigenvalues --   -0.90231  -0.87980  -0.83278  -0.82820  -0.81057
  Beta  occ. eigenvalues --   -0.78736  -0.76513  -0.74517  -0.73836  -0.72281
  Beta  occ. eigenvalues --   -0.70855  -0.68896  -0.66899  -0.65927  -0.64077
  Beta  occ. eigenvalues --   -0.61613  -0.61370  -0.60663  -0.59177  -0.57489
  Beta  occ. eigenvalues --   -0.56448  -0.54641  -0.53439  -0.52296  -0.51399
  Beta  occ. eigenvalues --   -0.49861  -0.49308  -0.48459  -0.47809  -0.47011
  Beta  occ. eigenvalues --   -0.46068  -0.46008  -0.45062  -0.44784  -0.44373
  Beta  occ. eigenvalues --   -0.44278  -0.43523  -0.42833  -0.42126  -0.41751
  Beta  occ. eigenvalues --   -0.40906  -0.40635  -0.40606  -0.39526  -0.39173
  Beta  occ. eigenvalues --   -0.38634  -0.38267  -0.38169  -0.37675  -0.35869
  Beta  occ. eigenvalues --   -0.35152  -0.35012  -0.34660  -0.32652  -0.32471
  Beta  occ. eigenvalues --   -0.32353  -0.32292  -0.30374  -0.29733  -0.26666
  Beta  occ. eigenvalues --   -0.25486  -0.25205
  Beta virt. eigenvalues --   -0.18790  -0.08434  -0.05126  -0.02047  -0.00678
  Beta virt. eigenvalues --    0.01875   0.04215   0.07166   0.08668   0.09222
  Beta virt. eigenvalues --    0.09795   0.10295   0.10788   0.12065   0.12246

 Mulliken charges and spin densities:
               1          2
     1  C    0.252622   0.043969
     2  C    0.314587   0.025104
     3  C   -0.101395   0.001529
     4  C   -0.108416   0.016387
     5  C   -0.161078   0.043385
     6  C    0.099387  -0.016754
     7  C    0.597937  -0.047189
     8  H    0.139223  -0.000331
     9  H    0.130494  -0.000910
    10  H    0.132798  -0.001875
    11  N   -0.728845   0.046246
    12  C    0.339157   0.157093
    13  C    0.095397   0.181591
    14  C   -0.151604  -0.079308
    15  C    0.134776   0.328592
    16  C   -0.131901  -0.070920
    17  C    0.124362   0.127673
    18  H    0.152847   0.002094
    19  H    0.139936   0.001633
    20  C   -0.389035  -0.019790
    21  H    0.144145   0.000703
    22  H    0.158533   0.014759
    23  H    0.166536   0.022251
    24  C   -0.375626  -0.008525
    25  H    0.152968   0.006419
    26  H    0.154610   0.007106
    27  H    0.139811  -0.000199
    28  O   -0.537172   0.204714
    29  N   -0.652618   0.020984
    30  H    0.317813  -0.000710
    31  C    0.165916   0.002762
    32  H    0.122380  -0.000133
    33  N   -0.492252  -0.004257
    34  C    0.059271   0.000276
    35  C   -0.178627  -0.000170
    36  C   -0.181988  -0.000149
    37  H    0.094067  -0.000011
    38  C   -0.186272  -0.000014
    39  H    0.102901   0.000008
    40  H    0.099575   0.000005
    41  C   -0.186884  -0.000008
    42  H    0.103897   0.000008
    43  H    0.099843   0.000004
    44  C   -0.180205   0.000001
    45  H    0.097720  -0.000009
    46  H    0.098378   0.000000
    47  H    0.097634  -0.000008
    48  H    0.098318  -0.000000
    49  H    0.094961   0.000000
    50  H    0.096432   0.000000
    51  H    0.424686  -0.004025
 Sum of Mulliken charges =   1.00000   1.00000

 Dipole moment (field-independent basis, Debye):
    X=             -2.1523    Y=             -0.6044    Z=              1.7927  Tot=              2.8656
 Quadrupole moment (field-independent basis, Debye-Ang):
   XX=           -114.2735   YY=            -80.8615   ZZ=           -151.9468
   XY=             17.0424   XZ=             -1.0596   YZ=             -3.2732

  Exact polarizability: 468.648  53.539 802.724   2.437 -28.519 177.570
 Approx polarizability: 503.315 -10.975 787.078   5.992 -28.934 201.102

 ******    1 imaginary frequencies (negative Signs) ******

                      1                      2                      3
                      A                      A                      A
 Frequencies --   -808.9924                41.0858                46.7145
 Red. masses --      1.2022                 4.6480                 4.1214
 Frc consts  --      0.4636                 0.0046                 0.0053
 IR Inten    --    241.6937                 3.4634                 0.2155

                      4                      5                      6
                      A                      A                      A
 Frequencies --     64.1927                74.8780                82.4402
 Red. masses --      4.7473                 4.2563                 2.9487
 Frc consts  --      0.0115                 0.0141                 0.0118
 IR Inten    --      1.0660                 1.7457                 0.2390

                      7                      8                      9
                      A                      A                      A
 Frequencies --     95.9543               101.9706               133.2741
 Red. masses --      1.0841                 3.5082                 6.0559
 Frc consts  --      0.0059                 0.0215                 0.0634
 IR Inten    --      0.5885                 2.0737                 0.6446

                     10                     11                     12
                      A                      A                      A
 Frequencies --    141.3548               150.2642               183.9612
 Red. masses --      4.6434                 4.3333                 1.6389
 Frc consts  --      0.0547                 0.0576                 0.0327
 IR Inten    --      1.0863                 2.9882                 0.8376

                     13                     14                     15
                      A                      A                      A
 Frequencies --    191.0912               208.9149               223.6547
 Red. masses --      2.3242                 3.2243                 2.3749
 Frc consts  --      0.0500                 0.0829                 0.0700
 IR Inten    --      1.4775                 1.9825                 2.7154

                     16                     17                     18
                      A                      A                      A
 Frequencies --    224.7430               248.7623               249.8225
 Red. masses --      2.9246                 2.1126                 2.9339
 Frc consts  --      0.0870                 0.0770                 0.1079
 IR Inten    --      0.7604                 7.1755                20.1952

                     19                     20                     21
                      A                      A                      A
 Frequencies --    271.6686               303.3368               307.9371
 Red. masses --      4.5785                 4.3531                 3.4026
 Frc consts  --      0.1991                 0.2360                 0.1901
 IR Inten    --      0.3427                 6.0793                46.5774

                     22                     23                     24
                      A                      A                      A
 Frequencies --    318.2065               340.0234               372.5651
 Red. masses --      4.6034                 2.1787                 4.4478
 Frc consts  --      0.2746                 0.1484                 0.3637
 IR Inten    --     11.3085                 8.2343                 0.9192

                     25                     26                     27
                      A                      A                      A
 Frequencies --    392.3666               394.9336               441.9586
 Red. masses --      3.0056                 4.6755                 3.7965
 Frc consts  --      0.2726                 0.4297                 0.4369
 IR Inten    --      0.7109                 0.2185                 1.0410

                     28                     29                     30
                      A                      A                      A
 Frequencies --    452.9844               464.0849               497.6486
 Red. masses --      3.3001                 5.5832                 2.0569
 Frc consts  --      0.3990                 0.7085                 0.3001
 IR Inten    --      0.1858                11.1663                 2.2050

                     31                     32                     33
                      A                      A                      A
 Frequencies --    514.5232               520.1020               529.8176
 Red. masses --      4.4721                 4.6338                 5.3781
 Frc consts  --      0.6975                 0.7385                 0.8895
 IR Inten    --      8.3299                29.8250                18.0140

                     34                     35                     36
                      A                      A                      A
 Frequencies --    536.4565               553.3188               559.6674
 Red. masses --      3.1782                 3.1983                 3.6008
 Frc consts  --      0.5389                 0.5769                 0.6645
 IR Inten    --     49.3970                51.5961                 5.8237

                     37                     38                     39
                      A                      A                      A
 Frequencies --    573.6129               602.7728               633.2915
 Red. masses --      2.8059                 4.8701                 5.2149
 Frc consts  --      0.5440                 1.0426                 1.2323
 IR Inten    --      1.6506                 0.3050                 1.0563

                     40                     41                     42
                      A                      A                      A
 Frequencies --    656.5195               705.8299               743.1045
 Red. masses --      5.3002                 3.2683                 4.8468
 Frc consts  --      1.3460                 0.9593                 1.5769
 IR Inten    --      0.1763                32.3874               220.9116

                     43                     44                     45
                      A                      A                      A
 Frequencies --    751.2826               764.6026               771.7691
 Red. masses --      2.2444                 2.3508                 1.7932
 Frc consts  --      0.7464                 0.8097                 0.6293
 IR Inten    --     22.9302                61.5312                64.8332

                     46                     47                     48
                      A                      A                      A
 Frequencies --    801.6611               803.9550               806.3700
 Red. masses --      4.8244                 2.2963                 1.5236
 Frc consts  --      1.8267                 0.8745                 0.5837
 IR Inten    --      0.3874                 3.5896                 0.5039

                     49                     50                     51
                      A                      A                      A
 Frequencies --    813.3198               813.8911               857.4074
 Red. masses --      4.6468                 2.8425                 2.2617
 Frc consts  --      1.8110                 1.1094                 0.9796
 IR Inten    --      6.8588                20.6899                 9.4710

                     52                     53                     54
                      A                      A                      A
 Frequencies --    887.5947               897.9569               899.7434
 Red. masses --      5.0235                 1.2986                 1.8118
 Frc consts  --      2.3317                 0.6169                 0.8642
 IR Inten    --      1.1651                24.7944                 8.6504

                     55                     56                     57
                      A                      A                      A
 Frequencies --    903.2494               910.8725               923.9509
 Red. masses --      1.9863                 2.7131                 1.3407
 Frc consts  --      0.9548                 1.3263                 0.6744
 IR Inten    --      9.3545                 3.5122                 3.9552

                     58                     59                     60
                      A                      A                      A
 Frequencies --    926.3496               943.4120               983.4526
 Red. masses --      1.3792                 1.5115                 4.1841
 Frc consts  --      0.6973                 0.7926                 2.3843
 IR Inten    --      0.4492                 0.0175                13.6184

                     61                     62                     63
                      A                      A                      A
 Frequencies --    985.2047               989.2954               999.3373
 Red. masses --      2.9260                 1.3410                 1.9972
 Frc consts  --      1.6733                 0.7733                 1.1751
 IR Inten    --      3.1290                 0.3578                74.2437

                     64                     65                     66
                      A                      A                      A
 Frequencies --   1013.7370              1034.3038              1038.6097
 Red. masses --      1.5818                 2.5062                 1.7836
 Frc consts  --      0.9577                 1.5796                 1.1336
 IR Inten    --      7.9312               486.0568                 0.4038

                     67                     68                     69
                      A                      A                      A
 Frequencies --   1043.3558              1052.5131              1067.0348
 Red. masses --      1.6145                 1.5075                 1.5120
 Frc consts  --      1.0355                 0.9840                 1.0143
 IR Inten    --     30.2173                59.8554                 5.0060

                     70                     71                     72
                      A                      A                      A
 Frequencies --   1067.4747              1071.2884              1090.3960
 Red. masses --      1.4803                 2.2742                 1.7624
 Frc consts  --      0.9938                 1.5378                 1.2346
 IR Inten    --     18.6982                25.6308                71.6994

                     73                     74                     75
                      A                      A                      A
 Frequencies --   1090.6467              1105.4870              1122.6711
 Red. masses --      1.4698                 2.4728                 2.5011
 Frc consts  --      1.0301                 1.7805                 1.8573
 IR Inten    --     43.6550                 1.0440                42.5035

                     76                     77                     78
                      A                      A                      A
 Frequencies --   1139.4977              1171.4632              1189.2466
 Red. masses --      1.9775                 2.2686                 1.0685
 Frc consts  --      1.5128                 1.8343                 0.8903
 IR Inten    --     20.4022                23.2156               130.6842

                     79                     80                     81
                      A                      A                      A
 Frequencies --   1192.4801              1203.3138              1205.7679
 Red. masses --      1.4761                 1.8330                 1.5086
 Frc consts  --      1.2367                 1.5638                 1.2923
 IR Inten    --     44.7227               568.6236                30.0633

                     82                     83                     84
                      A                      A                      A
 Frequencies --   1262.7413              1275.2324              1279.2082
 Red. masses --      1.7036                 1.3326                 1.5978
 Frc consts  --      1.6005                 1.2768                 1.5404
 IR Inten    --    414.1596                 7.8877                61.5064

                     85                     86                     87
                      A                      A                      A
 Frequencies --   1288.8024              1292.6192              1296.5997
 Red. masses --      1.2677                 2.1084                 1.6599
 Frc consts  --      1.2406                 2.0756                 1.6441
 IR Inten    --      3.8441               374.6008               182.3352

                     88                     89                     90
                      A                      A                      A
 Frequencies --   1324.2706              1341.6621              1345.9231
 Red. masses --      4.7355                 1.3275                 2.3904
 Frc consts  --      4.8929                 1.4079                 2.5513
 IR Inten    --   1694.8327                 1.2643                24.9443

                     91                     92                     93
                      A                      A                      A
 Frequencies --   1361.1346              1370.1988              1370.5127
 Red. masses --      1.7424                 2.5666                 1.5082
 Frc consts  --      1.9020                 2.8391                 1.6691
 IR Inten    --     13.8542                 9.7832                 3.8347

                     94                     95                     96
                      A                      A                      A
 Frequencies --   1381.5754              1386.0561              1388.7285
 Red. masses --      1.7942                 2.3313                 1.3533
 Frc consts  --      2.0178                 2.6388                 1.5378
 IR Inten    --     96.4599               133.6500                 1.5988

                     97                     98                     99
                      A                      A                      A
 Frequencies --   1390.3442              1392.5783              1409.8793
 Red. masses --      1.4704                 1.5021                 1.9991
 Frc consts  --      1.6747                 1.7163                 2.3413
 IR Inten    --      2.5462                 9.8618                97.7415

                    100                    101                    102
                      A                      A                      A
 Frequencies --   1410.7332              1425.3450              1428.3659
 Red. masses --      1.4779                 1.5785                 1.6240
 Frc consts  --      1.7330                 1.8895                 1.9521
 IR Inten    --     43.8201                16.9659                 6.3190

                    103                    104                    105
                      A                      A                      A
 Frequencies --   1443.5833              1454.9186              1462.7492
 Red. masses --      2.3577                 1.7916                 1.6624
 Frc consts  --      2.8948                 2.2344                 2.0957
 IR Inten    --     41.0463               282.2135               100.1656

                    106                    107                    108
                      A                      A                      A
 Frequencies --   1473.5751              1475.6069              1478.3712
 Red. masses --      1.2950                 1.4328                 1.1065
 Frc consts  --      1.6568                 1.8382                 1.4249
 IR Inten    --     14.3025                75.9797                19.5747

                    109                    110                    111
                      A                      A                      A
 Frequencies --   1487.2012              1490.1064              1491.6462
 Red. masses --      1.0920                 1.0892                 1.0984
 Frc consts  --      1.4231                 1.4249                 1.4400
 IR Inten    --      1.8608                 1.4725                 5.0843

                    112                    113                    114
                      A                      A                      A
 Frequencies --   1500.4441              1501.2423              1513.4351
 Red. masses --      1.1010                 2.3804                 1.1532
 Frc consts  --      1.4604                 3.1608                 1.5562
 IR Inten    --      4.2836               251.1541                 5.2497

                    115                    116                    117
                      A                      A                      A
 Frequencies --   1514.2041              1534.1503              1551.6083
 Red. masses --      2.4128                 4.9260                 3.7090
 Frc consts  --      3.2595                 6.8310                 5.2611
 IR Inten    --    186.5623               540.0598                72.3986

                    118                    119                    120
                      A                      A                      A
 Frequencies --   1577.0724              1644.1404              1650.0992
 Red. masses --      6.4547                 6.8407                 6.6438
 Frc consts  --      9.4587                10.8950                10.6583
 IR Inten    --    146.9248               310.6756                93.6859

                    121                    122                    123
                      A                      A                      A
 Frequencies --   1664.8979              1702.2408              1806.2740
 Red. masses --      6.4685                 6.8918                 1.0917
 Frc consts  --     10.5639                11.7659                 2.0986
 IR Inten    --    347.6822               144.8189               168.5792

                    124                    125                    126
                      A                      A                      A
 Frequencies --   3037.0818              3041.0396              3043.7417
 Red. masses --      1.0660                 1.0654                 1.0612
 Frc consts  --      5.7933                 5.8048                 5.7922
 IR Inten    --     39.0164                40.2673                69.4308

                    127                    128                    129
                      A                      A                      A
 Frequencies --   3046.0607              3046.8842              3049.4217
 Red. masses --      1.0623                 1.0422                 1.0646
 Frc consts  --      5.8075                 5.7005                 5.8326
 IR Inten    --     25.4922                 1.1390                14.9630

                    130                    131                    132
                      A                      A                      A
 Frequencies --   3062.6079              3065.0762              3084.6006
 Red. masses --      1.0778                 1.0372                 1.0876
 Frc consts  --      5.9564                 5.7410                 6.0972
 IR Inten    --     95.8751                 9.2373                72.6252

                    133                    134                    135
                      A                      A                      A
 Frequencies --   3087.7633              3089.9194              3094.1415
 Red. masses --      1.0983                 1.0945                 1.1028
 Frc consts  --      6.1694                 6.1571                 6.2207
 IR Inten    --    118.9130                77.3421                70.7657

                    136                    137                    138
                      A                      A                      A
 Frequencies --   3098.2943              3103.0636              3105.3043
 Red. masses --      1.1048                 1.0960                 1.1027
 Frc consts  --      6.2488                 6.2179                 6.2648
 IR Inten    --     92.2542                 8.9971                99.0133

                    139                    140                    141
                      A                      A                      A
 Frequencies --   3125.2899              3167.2073              3173.0665
 Red. masses --      1.1001                 1.1035                 1.1008
 Frc consts  --      6.3311                 6.5217                 6.5298
 IR Inten    --      8.4335                24.6768                23.0511

                    142                    143                    144
                      A                      A                      A
 Frequencies --   3210.9817              3214.2686              3230.7491
 Red. masses --      1.0901                 1.0918                 1.0907
 Frc consts  --      6.6219                 6.6458                 6.7076
 IR Inten    --     10.3602                29.6719                17.2150

                    145                    146                    147
                      A                      A                      A
 Frequencies --   3232.0364              3244.0483              3515.0537
 Red. masses --      1.0918                 1.0955                 1.0839
 Frc consts  --      6.7194                 6.7928                 7.8908
 IR Inten    --      2.0003                24.2001               438.5582

 - Thermochemistry -
 -------------------
 Temperature   298.150 Kelvin.  Pressure   1.00000 Atm.
 Atom     1 has atomic number  6 and mass  12.00000

 Molecular mass:   347.19976 amu.
 Principal axes and moments of inertia in atomic units:
                           1         2         3
     Eigenvalues --  6189.52452********************
           X            0.82217  -0.56906  -0.01439
           Y            0.56910   0.82112   0.04348
           Z           -0.01293  -0.04394   0.99895
 This molecule is an asymmetric top.
 Rotational symmetry number  1.
 Warning -- assumption of classical behavior for rotation
           may cause significant error
 Rotational temperatures (Kelvin)      0.01399     0.00499     0.00380
 Rotational constants (GHZ):           0.29158     0.10395     0.07915
    1 imaginary frequencies ignored.
 Zero-point vibrational energy    1127429.9 (Joules/Mol)
                                  269.46221 (Kcal/Mol)
 Warning -- explicit consideration of  37 degrees of freedom as
           vibrations may cause significant error
 Vibrational temperatures:     59.11    67.21    92.36   107.73   118.61
          (Kelvin)            138.06   146.71   191.75   203.38   216.20
                              264.68   274.94   300.58   321.79   323.36
                              357.91   359.44   390.87   436.43   443.05
                              457.83   489.22   536.04   564.53   568.22
                              635.88   651.74   667.71   716.01   740.28
                              748.31   762.29   771.84   796.10   805.24
                              825.30   867.26   911.17   944.59  1015.53
                             1069.16  1080.93  1100.09  1110.40  1153.41
                             1156.71  1160.19  1170.19  1171.01  1233.62
                             1277.05  1291.96  1294.53  1299.57  1310.54
                             1329.36  1332.81  1357.36  1414.97  1417.49
                             1423.38  1437.82  1458.54  1488.13  1494.33
                             1501.16  1514.33  1535.23  1535.86  1541.35
                             1568.84  1569.20  1590.55  1615.27  1639.48
                             1685.47  1711.06  1715.71  1731.30  1734.83
                             1816.80  1834.77  1840.50  1854.30  1859.79
                             1865.52  1905.33  1930.35  1936.48  1958.37
                             1971.41  1971.86  1987.78  1994.23  1998.07
                             2000.40  2003.61  2028.50  2029.73  2050.75
                             2055.10  2076.99  2093.30  2104.57  2120.15
                             2123.07  2127.05  2139.75  2143.93  2146.15
                             2158.80  2159.95  2177.50  2178.60  2207.30
                             2232.42  2269.06  2365.55  2374.12  2395.42
                             2449.14  2598.83  4369.68  4375.38  4379.27
                             4382.60  4383.79  4387.44  4406.41  4409.96
                             4438.05  4442.60  4445.70  4451.78  4457.75
                             4464.62  4467.84  4496.60  4556.90  4565.34
                             4619.89  4624.62  4648.33  4650.18  4667.46
                             5057.38

 Zero-point correction=                           0.429415 (Hartree/Particle)
 Thermal correction to Energy=                    0.451539
 Thermal correction to Enthalpy=                  0.452484
 Thermal correction to Gibbs Free Energy=         0.378216
 Sum of electronic and zero-point Energies=          -1092.451820
 Sum of electronic and thermal Energies=             -1092.429696
 Sum of electronic and thermal Enthalpies=           -1092.428751
 Sum of electronic and thermal Free Energies=        -1092.503019

                     E (Thermal)             CV                S
                      KCal/Mol        Cal/Mol-Kelvin    Cal/Mol-Kelvin
 Total                  283.345             89.227            156.310
 Electronic               0.000              0.000              1.377
 Translational            0.889              2.981             43.428
 Rotational               0.889              2.981             36.148
 Vibrational            281.568             83.265             75.357
 Vibration     1          0.594              1.981              5.206
 Vibration     2          0.595              1.979              4.952
 Vibration     3          0.597              1.971              4.324
 Vibration     4          0.599              1.966              4.021
 Vibration     5          0.600              1.961              3.832
 Vibration     6          0.603              1.952              3.535
 Vibration     7          0.604              1.948              3.416
 Vibration     8          0.613              1.920              2.898
 Vibration     9          0.615              1.912              2.785
 Vibration    10          0.618              1.902              2.669
 Vibration    11          0.631              1.862              2.288
 Vibration    12          0.634              1.852              2.217
 Vibration    13          0.642              1.827              2.053
 Vibration    14          0.649              1.805              1.929
 Vibration    15          0.649              1.803              1.921
 Vibration    16          0.662              1.765              1.739
 Vibration    17          0.663              1.763              1.732
 Vibration    18          0.675              1.725              1.586
 Vibration    19          0.695              1.667              1.398
 Vibration    20          0.698              1.659              1.373
 Vibration    21          0.705              1.639              1.319
 Vibration    22          0.720              1.596              1.212
 Vibration    23          0.744              1.528              1.069
 Vibration    24          0.760              1.486              0.991
 Vibration    25          0.762              1.481              0.981
 Vibration    26          0.802              1.379              0.820
 Vibration    27          0.812              1.354              0.787
 Vibration    28          0.822              1.330              0.754
 Vibration    29          0.853              1.255              0.664
 Vibration    30          0.870              1.218              0.623
 Vibration    31          0.875              1.205              0.610
 Vibration    32          0.885              1.184              0.588
 Vibration    33          0.891              1.169              0.573
 Vibration    34          0.909              1.132              0.537
 Vibration    35          0.915              1.119              0.524
 Vibration    36          0.930              1.088              0.497
 Vibration    37          0.961              1.026              0.445

 Optimization completed.
    -- Stationary point found.
 Normal termination of Gaussian 16 at Sun Dec 16 11:36:22 2018.
