 Gaussian 16, Revision A.03,
 Gaussian 16:  ES64L-G16RevA.03 25-Dec-2016

 ----------------------------------------------------------------------
 #p opt=(tight,recalcfc=10) freq=internalmodes b3lyp/6-31g(d,p) scrf=(c
 pcm,solvent=dichloromethane,read) nosymm empiricaldispersion=gd3bj int
 =grid=ultrafine
 ----------------------------------------------------------------------

 ---------------------------------------------------------------------
 cyclohexylimine triBIP oxidized, all protons transferred optimization
 ---------------------------------------------------------------------
 Symbolic Z-matrix:
 Charge =  1 Multiplicity = 2

 SCF Done:  E(UB3LYP) =  -2086.31247864     A.U. after   19 cycles

 Alpha  occ. eigenvalues --  -19.15796 -14.42540 -14.40104 -14.39481 -14.39353
 Alpha  occ. eigenvalues --  -14.34922 -14.34441 -14.34100 -10.29459 -10.28673
 Alpha  occ. eigenvalues --  -10.28019 -10.27883 -10.27860 -10.24994 -10.24974
 Alpha  occ. eigenvalues --  -10.24488 -10.24365 -10.24131 -10.23488 -10.23385
 Alpha  occ. eigenvalues --  -10.23145 -10.23091 -10.22656 -10.22561 -10.22249
 Alpha  occ. eigenvalues --  -10.22183 -10.22181 -10.21638 -10.21271 -10.21224
 Alpha  occ. eigenvalues --  -10.21134 -10.21033 -10.20770 -10.20757 -10.20679
 Alpha  occ. eigenvalues --  -10.20624 -10.20546 -10.20402 -10.20301 -10.19875
 Alpha  occ. eigenvalues --  -10.19659 -10.18957 -10.18816 -10.18439 -10.17947
 Alpha  occ. eigenvalues --  -10.17929 -10.17734 -10.17342 -10.17082 -10.17046
 Alpha  occ. eigenvalues --   -1.05109  -1.04301  -1.03504  -1.03037  -1.00727
 Alpha  occ. eigenvalues --   -0.90602  -0.90019  -0.89227  -0.88291  -0.88037
 Alpha  occ. eigenvalues --   -0.87031  -0.85981  -0.84779  -0.83401  -0.82153
 Alpha  occ. eigenvalues --   -0.80074  -0.79356  -0.78782  -0.77884  -0.75869
 Alpha  occ. eigenvalues --   -0.75681  -0.74703  -0.74373  -0.73832  -0.72809
 Alpha  occ. eigenvalues --   -0.69814  -0.69447  -0.69061  -0.68710  -0.68359
 Alpha  occ. eigenvalues --   -0.67310  -0.66198  -0.65371  -0.64578  -0.64035
 Alpha  occ. eigenvalues --   -0.63480  -0.62810  -0.62254  -0.61634  -0.61498
 Alpha  occ. eigenvalues --   -0.60786  -0.60365  -0.59887  -0.57850  -0.57104
 Alpha  occ. eigenvalues --   -0.56840  -0.55673  -0.53994  -0.53680  -0.53406
 Alpha  occ. eigenvalues --   -0.52530  -0.51982  -0.51198  -0.51105  -0.50544
 Alpha  occ. eigenvalues --   -0.49161  -0.48980  -0.48637  -0.48325  -0.47716
 Alpha  occ. eigenvalues --   -0.47590  -0.47119  -0.46612  -0.46554  -0.46067
 Alpha  occ. eigenvalues --   -0.45929  -0.45776  -0.45602  -0.45316  -0.45056
 Alpha  occ. eigenvalues --   -0.44920  -0.44685  -0.44011  -0.43952  -0.43743
 Alpha  occ. eigenvalues --   -0.43375  -0.43118  -0.43036  -0.42851  -0.42059
 Alpha  occ. eigenvalues --   -0.40577  -0.40559  -0.39950  -0.39812  -0.39416
 Alpha  occ. eigenvalues --   -0.39167  -0.39095  -0.38767  -0.38627  -0.38456
 Alpha  occ. eigenvalues --   -0.38360  -0.38289  -0.37862  -0.37798  -0.37648
 Alpha  occ. eigenvalues --   -0.37548  -0.37101  -0.36990  -0.36457  -0.35830
 Alpha  occ. eigenvalues --   -0.35531  -0.35324  -0.35297  -0.34809  -0.33875
 Alpha  occ. eigenvalues --   -0.33534  -0.33331  -0.33168  -0.32941  -0.32898
 Alpha  occ. eigenvalues --   -0.32631  -0.32438  -0.32268  -0.32145  -0.31488
 Alpha  occ. eigenvalues --   -0.30791  -0.30529  -0.30450  -0.28739  -0.27370
 Alpha  occ. eigenvalues --   -0.27029  -0.26854  -0.25919  -0.24431  -0.23270
 Alpha  occ. eigenvalues --   -0.22402  -0.21522
 Alpha virt. eigenvalues --   -0.10357  -0.07380  -0.04998  -0.02474  -0.01250
 Alpha virt. eigenvalues --   -0.00342   0.00275   0.00715   0.01798   0.04510
 Alpha virt. eigenvalues --    0.05863   0.06814   0.06898   0.07543   0.08448

  Beta  occ. eigenvalues --  -19.15000 -14.42539 -14.40103 -14.39449 -14.39351
  Beta  occ. eigenvalues --  -14.34922 -14.34302 -14.34090 -10.29459 -10.28673
  Beta  occ. eigenvalues --  -10.28025 -10.27962 -10.27866 -10.24994 -10.24974
  Beta  occ. eigenvalues --  -10.24488 -10.24320 -10.24129 -10.23496 -10.23386
  Beta  occ. eigenvalues --  -10.23091 -10.22794 -10.22561 -10.22249 -10.22189
  Beta  occ. eigenvalues --  -10.22179 -10.22156 -10.21370 -10.21292 -10.21224
  Beta  occ. eigenvalues --  -10.21134 -10.21051 -10.20897 -10.20782 -10.20678
  Beta  occ. eigenvalues --  -10.20618 -10.20503 -10.20443 -10.20399 -10.19875
  Beta  occ. eigenvalues --  -10.19659 -10.18957 -10.18816 -10.18439 -10.17913
  Beta  occ. eigenvalues --  -10.17896 -10.17733 -10.17342 -10.17064 -10.17029
  Beta  occ. eigenvalues --   -1.04307  -1.04131  -1.03307  -1.02645  -1.00727
  Beta  occ. eigenvalues --   -0.90591  -0.89906  -0.89164  -0.88107  -0.87741
  Beta  occ. eigenvalues --   -0.86891  -0.85927  -0.84778  -0.83159  -0.81839
  Beta  occ. eigenvalues --   -0.80073  -0.79342  -0.78750  -0.77725  -0.75869
  Beta  occ. eigenvalues --   -0.75680  -0.74677  -0.74318  -0.73785  -0.72019
  Beta  occ. eigenvalues --   -0.69814  -0.69368  -0.68965  -0.68683  -0.68298
  Beta  occ. eigenvalues --   -0.67300  -0.66177  -0.65355  -0.64530  -0.63965
  Beta  occ. eigenvalues --   -0.63444  -0.62771  -0.62108  -0.61610  -0.61445
  Beta  occ. eigenvalues --   -0.60725  -0.60234  -0.59809  -0.57849  -0.57010
  Beta  occ. eigenvalues --   -0.56835  -0.55629  -0.53967  -0.53561  -0.53377
  Beta  occ. eigenvalues --   -0.52504  -0.51898  -0.51196  -0.51076  -0.50338
  Beta  occ. eigenvalues --   -0.49077  -0.48862  -0.48599  -0.48294  -0.47682
  Beta  occ. eigenvalues --   -0.47545  -0.46854  -0.46588  -0.46367  -0.45943
  Beta  occ. eigenvalues --   -0.45820  -0.45702  -0.45559  -0.45301  -0.44987
  Beta  occ. eigenvalues --   -0.44864  -0.44382  -0.43890  -0.43792  -0.43710
  Beta  occ. eigenvalues --   -0.43344  -0.43001  -0.42767  -0.42063  -0.41578
  Beta  occ. eigenvalues --   -0.40558  -0.40379  -0.39810  -0.39577  -0.39416
  Beta  occ. eigenvalues --   -0.39096  -0.39014  -0.38737  -0.38586  -0.38431
  Beta  occ. eigenvalues --   -0.38277  -0.38133  -0.37830  -0.37666  -0.37610
  Beta  occ. eigenvalues --   -0.37532  -0.36978  -0.36874  -0.36311  -0.35653
  Beta  occ. eigenvalues --   -0.35480  -0.35117  -0.34753  -0.34268  -0.33716
  Beta  occ. eigenvalues --   -0.33224  -0.33186  -0.32996  -0.32810  -0.32794
  Beta  occ. eigenvalues --   -0.32557  -0.32266  -0.32047  -0.31490  -0.31396
  Beta  occ. eigenvalues --   -0.30790  -0.30451  -0.30370  -0.27994  -0.27329
  Beta  occ. eigenvalues --   -0.26664  -0.26336  -0.25914  -0.23773  -0.23107
  Beta  occ. eigenvalues --   -0.22072
  Beta virt. eigenvalues --   -0.14977  -0.10352  -0.07201  -0.04598  -0.02005
  Beta virt. eigenvalues --   -0.00337   0.00350   0.00687   0.01256   0.01824
  Beta virt. eigenvalues --    0.05059   0.06092   0.06895   0.06933   0.07533

 Mulliken charges and spin densities:
               1          2
     1  C    0.201555  -0.000686
     2  C    0.340366   0.001763
     3  C   -0.105198  -0.000647
     4  C   -0.131014   0.001910
     5  C   -0.148854   0.000373
     6  C    0.069159   0.001137
     7  C    0.512102  -0.004769
     8  H    0.128933   0.000014
     9  H    0.117406  -0.000093
    10  H    0.117540  -0.000021
    11  C    0.202296  -0.007606
    12  C    0.347935   0.032551
    13  C   -0.104413  -0.015286
    14  C   -0.126330   0.035133
    15  C   -0.152647   0.001673
    16  C    0.081006   0.019973
    17  C    0.514820  -0.062672
    18  H    0.130119   0.000430
    19  H    0.119478  -0.001663
    20  H    0.118621  -0.000162
    21  N   -0.673645   0.001401
    22  C    0.352433  -0.004018
    23  C    0.066507   0.274583
    24  C   -0.180504  -0.123131
    25  C    0.154549   0.347485
    26  C   -0.173508  -0.126683
    27  C    0.107825   0.211953
    28  H    0.127957   0.003536
    29  H    0.121104   0.003928
    30  C   -0.035284  -0.021807
    31  C   -0.011622  -0.014108
    32  O   -0.569700   0.307045
    33  N   -0.691114   0.071574
    34  N   -0.664886   0.016767
    35  N   -0.694275   0.004729
    36  C    0.519058  -0.000267
    37  N   -0.669148   0.000105
    38  N   -0.697765   0.000236
    39  C    0.035561   0.000041
    40  C   -0.130635   0.000069
    41  C   -0.127660   0.000071
    42  C   -0.086265   0.000008
    43  C    0.352444   0.000074
    44  C    0.235110  -0.000064
    45  H    0.132977  -0.000003
    46  H    0.128201  -0.000004
    47  H    0.142395  -0.000001
    48  C    0.211727  -0.000006
    49  H    0.194812   0.000000
    50  N   -0.477481   0.000017
    51  C    0.085266  -0.000001
    52  C   -0.206307  -0.000000
    53  C   -0.188776   0.000001
    54  H    0.149574   0.000001
    55  C   -0.193517  -0.000000
    56  H    0.122337   0.000000
    57  H    0.123093   0.000000
    58  C   -0.187582   0.000000
    59  H    0.116869   0.000000
    60  H    0.117010   0.000000
    61  C   -0.182024  -0.000000
    62  H    0.107019  -0.000000
    63  H    0.107678   0.000000
    64  H    0.106695   0.000000
    65  H    0.105873  -0.000000
    66  H    0.101775   0.000000
    67  H    0.101826   0.000000
    68  H    0.339514  -0.000003
    69  H    0.312300  -0.000039
    70  H    0.311655  -0.000565
    71  H    0.311747  -0.002131
    72  C   -0.316364   0.008839
    73  H    0.118986  -0.000970
    74  H    0.105793   0.000858
    75  H    0.103823  -0.000219
    76  C   -0.311514   0.011917
    77  H    0.114415  -0.000467
    78  H    0.114876   0.003921
    79  H    0.112908  -0.000023
    80  C   -0.324169  -0.000025
    81  H    0.111002   0.000208
    82  H    0.110859   0.000190
    83  H    0.107812  -0.000216
    84  C   -0.316073   0.008362
    85  H    0.118710  -0.000949
    86  H    0.103566  -0.000195
    87  H    0.105687   0.000848
    88  C   -0.311634   0.011602
    89  H    0.114861   0.003766
    90  H    0.114225  -0.000461
    91  H    0.113007  -0.000009
    92  C   -0.322142   0.000821
    93  H    0.113832   0.000235
    94  H    0.113641   0.000221
    95  H    0.109822  -0.000402
 Sum of Mulliken charges =   1.00000   1.00000

 Dipole moment (field-independent basis, Debye):
    X=             19.6224    Y=              4.1052    Z=              7.3524  Tot=             21.3530
 Quadrupole moment (field-independent basis, Debye-Ang):
   XX=              4.3679   YY=           -224.4799   ZZ=           -274.0439
   XY=              0.5499   XZ=             77.1307   YZ=             -5.3842

  Exact polarizability:1201.433 -57.7881003.609 186.431 -95.560 380.087
 Approx polarizability:1151.978 -42.9291151.809 163.172 -99.894 425.674

 Optimization completed.
    -- Stationary point found.
 Normal termination of Gaussian 16 at Fri Dec 21 17:29:05 2018.

 ----------------------------------------------------------------------
 #P Geom=AllCheck Guess=TCheck SCRF=Check GenChk UB3LYP/6-31G(d,p) Freq
 ----------------------------------------------------------------------

 Structure from the checkpoint file:  "cyclohexyl-triBIP-E4PT.chk"
 ---------------------------------------------------------------------
 cyclohexylimine triBIP oxidized, all protons transferred optimization
 ---------------------------------------------------------------------
 Charge =  1 Multiplicity = 2

                          Input orientation:
 ---------------------------------------------------------------------
 Center     Atomic      Atomic             Coordinates (Angstroms)
 Number     Number       Type             X           Y           Z
 ---------------------------------------------------------------------
      1          6           0        1.604844    0.342192    1.143316
      2          6           0        0.532362    1.214834    0.830867
      3          6           0        0.703427    2.590103    0.690696
      4          6           0        1.995276    3.087488    0.871799
      5          6           0        3.072571    2.246059    1.181922
      6          6           0        2.904490    0.862822    1.323041
      7          6           0       -0.153020   -0.893168    0.964898
      8          1           0       -0.127128    3.241678    0.449200
      9          1           0        2.171002    4.151587    0.769096
     10          1           0        4.063571    2.661969    1.313863
     11          6           0       -2.452560   -1.800755    0.626472
     12          6           0       -3.346813   -2.903666    0.591933
     13          6           0       -2.932565   -4.211710    0.843294
     14          6           0       -1.582927   -4.393911    1.137545
     15          6           0       -0.677271   -3.319364    1.175072
     16          6           0       -1.085682   -2.006655    0.927679
     17          6           0       -4.394612   -1.002596    0.123099
     18          1           0       -3.625716   -5.042896    0.812812
     19          1           0       -1.215250   -5.392741    1.339843
     20          1           0        0.365280   -3.502932    1.401743
     21          7           0       -0.566337    0.391091    0.729067
     22          6           0       -6.822926   -0.611006   -0.478253
     23          6           0       -5.468898   -0.097712   -0.232200
     24          6           0       -5.199856    1.260589   -0.341423
     25          6           0       -6.197082    2.172494   -0.697280
     26          6           0       -7.507509    1.679690   -0.955856
     27          6           0       -7.857801    0.354730   -0.867917
     28          1           0       -4.191491    1.596592   -0.145931
     29          1           0       -8.262195    2.399393   -1.239901
     30          6           0       -5.934537    3.669095   -0.819181
     31          6           0       -9.272198   -0.134051   -1.175052
     32          8           0       -7.074293   -1.840216   -0.361922
     33          7           0       -3.123466   -0.636554    0.334467
     34          7           0       -4.563330   -2.353152    0.271485
     35          7           0        1.154485   -0.961280    1.220378
     36          6           0        4.016652   -0.010783    1.640127
     37          7           0        3.858344   -1.364953    1.743326
     38          7           0        5.284920    0.363604    1.858379
     39          6           0        7.330595   -0.998773    2.407874
     40          6           0        7.769664   -2.320286    2.614394
     41          6           0        6.885358   -3.399416    2.540184
     42          6           0        5.527168   -3.216551    2.251387
     43          6           0        5.086270   -1.913868    2.042226
     44          6           0        5.962174   -0.802679    2.109382
     45          1           0        8.815440   -2.495229    2.838255
     46          1           0        7.259304   -4.401487    2.708227
     47          1           0        4.848180   -4.058293    2.196119
     48          6           0        8.244206    0.098278    2.507746
     49          1           0        9.284985   -0.098539    2.737241
     50          7           0        7.877901    1.333460    2.346072
     51          6           0        8.722076    2.534033    2.434866
     52          6           0       10.191668    2.225119    2.705817
     53          6           0        8.543776    3.364325    1.156961
     54          1           0        8.320742    3.110005    3.276647
     55          6           0       10.986705    3.533889    2.809170
     56          1           0       10.590503    1.617522    1.884335
     57          1           0       10.296919    1.647068    3.628650
     58          6           0        9.339986    4.669398    1.260983
     59          1           0        8.900378    2.773708    0.306185
     60          1           0        7.480873    3.568555    0.996060
     61          6           0       10.819358    4.394506    1.552111
     62          1           0       12.041962    3.303938    2.978772
     63          1           0       10.638626    4.094908    3.684367
     64          1           0        9.229810    5.238573    0.333939
     65          1           0        8.918458    5.283668    2.065724
     66          1           0       11.363823    5.336438    1.665915
     67          1           0       11.261917    3.869178    0.697063
     68          1           0        6.882607    1.479253    2.125144
     69          1           0        2.951443   -1.814538    1.613233
     70          1           0       -1.535219    0.619805    0.512439
     71          1           0       -5.472586   -2.784224    0.135154
     72          6           0       -9.222821   -1.135623   -2.351643
     73          1           0       -8.637116   -2.015340   -2.088960
     74          1           0      -10.238684   -1.451451   -2.605930
     75          1           0       -8.779722   -0.667146   -3.234709
     76          6           0       -6.243692    4.112844   -2.266081
     77          1           0       -7.277642    3.895225   -2.542983
     78          1           0       -6.088388    5.190868   -2.360042
     79          1           0       -5.584515    3.607600   -2.976145
     80          6           0      -10.199857    1.023152   -1.574367
     81          1           0      -10.297025    1.762136   -0.773983
     82          1           0       -9.848782    1.536759   -2.473296
     83          1           0      -11.194084    0.622529   -1.783322
     84          6           0       -9.875250   -0.817127    0.072390
     85          1           0       -9.280519   -1.677040    0.376339
     86          1           0       -9.926793   -0.113510    0.907691
     87          1           0      -10.891942   -1.151921   -0.151907
     88          6           0       -6.865428    4.424080    0.155179
     89          1           0       -6.704131    5.500610    0.053790
     90          1           0       -7.918478    4.220657   -0.050627
     91          1           0       -6.656813    4.140181    1.189476
     92          6           0       -4.481145    4.035590   -0.488424
     93          1           0       -4.221109    3.757044    0.536099
     94          1           0       -3.777356    3.547957   -1.167917
     95          1           0       -4.350227    5.115435   -0.588230
 ---------------------------------------------------------------------

 SCF Done:  E(UB3LYP) =  -2086.31247864     A.U. after    1 cycles
