 Gaussian 16, Revision A.03,
 Gaussian 16:  ES64L-G16RevA.03 25-Dec-2016

 ----------------------------------------------------------------------
 #p opt=tight freq=internalmodes b3lyp/6-31g(d,p) scrf=(cpcm,solvent=di
 chloromethane,read) nosymm empiricaldispersion=gd3bj int=grid=ultrafin
 e
 ----------------------------------------------------------------------

 -------------------------------------------------------
 cyclohexylimine monoBIP oxidized but no PT optimization
 -------------------------------------------------------
 Symbolic Z-matrix:
 Charge =  1 Multiplicity = 2

 SCF Done:  E(UB3LYP) =  -1092.88187716     A.U. after   18 cycles
 Optimization completed.
    -- Stationary point found.
 Normal termination of Gaussian 16 at Fri Dec 14 13:16:58 2018.

 ----------------------------------------------------------------------
 #P Geom=AllCheck Guess=TCheck SCRF=Check GenChk UB3LYP/6-31G(d,p) Freq
 ----------------------------------------------------------------------

 Structure from the checkpoint file:  "cyclohexyl-monoBIP-E0PT.chk"
 -------------------------------------------------------
 cyclohexylimine monoBIP oxidized but no PT optimization
 -------------------------------------------------------
 Charge =  1 Multiplicity = 2

                          Input orientation:
 ---------------------------------------------------------------------
 Center     Atomic      Atomic             Coordinates (Angstroms)
 Number     Number       Type             X           Y           Z
 ---------------------------------------------------------------------
      1          6           0       -0.441684    2.682131    0.271440
      2          6           0       -1.856882    2.818524    0.234007
      3          6           0       -2.439043    4.096430    0.149597
      4          6           0       -1.578839    5.181726    0.112432
      5          6           0       -0.171034    5.028510    0.153834
      6          6           0        0.437802    3.778009    0.233878
      7          6           0       -1.393958    0.694254    0.348774
      8          1           0       -3.513919    4.218184    0.115484
      9          1           0       -1.987998    6.182621    0.050375
     10          1           0        0.454845    5.912958    0.123697
     11          7           0       -2.413318    1.568739    0.284606
     12          6           0       -2.982466   -1.201063    0.411316
     13          6           0       -1.607661   -0.723184    0.404288
     14          6           0       -0.573360   -1.654913    0.438534
     15          6           0       -0.844671   -3.023238    0.486268
     16          6           0       -2.201742   -3.469469    0.508507
     17          6           0       -3.266029   -2.605856    0.473296
     18          1           0        0.455991   -1.319147    0.424348
     19          1           0       -2.388360   -4.536726    0.553504
     20          6           0        0.256329   -4.031009    0.511822
     21          1           0        1.236630   -3.558788    0.461665
     22          1           0        0.199303   -4.632116    1.425416
     23          1           0        0.152801   -4.729287   -0.324803
     24          6           0       -4.693332   -3.057520    0.486739
     25          1           0       -5.235371   -2.611765    1.324936
     26          1           0       -5.207102   -2.745662   -0.426883
     27          1           0       -4.748279   -4.142692    0.568187
     28          8           0       -3.991394   -0.378310    0.358162
     29          1           0       -3.622753    0.594081    0.316476
     30          7           0       -0.188486    1.342648    0.343975
     31          1           0        0.766786    0.993244    0.386120
     32          6           0        1.887382    3.592148    0.276195
     33          1           0        2.491276    4.503579    0.228177
     34          7           0        2.392298    2.418535    0.366772
     35          6           0        3.856046    2.291049    0.410734
     36          6           0        4.509928    2.715240   -0.914861
     37          6           0        4.486728    3.052077    1.588625
     38          1           0        4.060234    1.224453    0.556297
     39          6           0        6.024647    2.485263   -0.868151
     40          1           0        4.300642    3.778511   -1.082617
     41          1           0        4.056903    2.160701   -1.742063
     42          6           0        6.000209    2.815580    1.638901
     43          1           0        4.293640    4.124402    1.465849
     44          1           0        4.007982    2.743287    2.522439
     45          6           0        6.665187    3.216766    0.316811
     46          1           0        6.482397    2.804647   -1.809162
     47          1           0        6.217359    1.409132   -0.773431
     48          1           0        6.435389    3.374670    2.472828
     49          1           0        6.193107    1.753230    1.833871
     50          1           0        7.739569    3.012852    0.353849
     51          1           0        6.551219    4.298757    0.173916
 ---------------------------------------------------------------------

 SCF Done:  E(UB3LYP) =  -1092.88187716     A.U. after    1 cycles

 Alpha  occ. eigenvalues --  -19.23319 -14.42179 -14.37908 -14.34665 -10.32624
 Alpha  occ. eigenvalues --  -10.30813 -10.26713 -10.26524 -10.25688 -10.25651
 Alpha  occ. eigenvalues --  -10.24998 -10.24454 -10.23407 -10.23280 -10.22903
 Alpha  occ. eigenvalues --  -10.22528 -10.22247 -10.21874 -10.21807 -10.20403
 Alpha  occ. eigenvalues --  -10.20119 -10.18527 -10.18467 -10.18195 -10.18189
 Alpha  occ. eigenvalues --  -10.17961  -1.12750  -1.06317  -0.94371  -0.92378
 Alpha  occ. eigenvalues --   -0.90972  -0.88157  -0.83473  -0.82903  -0.81969
 Alpha  occ. eigenvalues --   -0.78808  -0.76666  -0.74520  -0.73875  -0.72308
 Alpha  occ. eigenvalues --   -0.71551  -0.69377  -0.67075  -0.65562  -0.64157
 Alpha  occ. eigenvalues --   -0.62058  -0.61375  -0.61249  -0.59596  -0.58055
 Alpha  occ. eigenvalues --   -0.56455  -0.54874  -0.53514  -0.52633  -0.51524
 Alpha  occ. eigenvalues --   -0.50023  -0.49890  -0.48373  -0.47908  -0.47676
 Alpha  occ. eigenvalues --   -0.47087  -0.46223  -0.45083  -0.44788  -0.44658
 Alpha  occ. eigenvalues --   -0.44525  -0.44278  -0.42853  -0.42546  -0.42008
 Alpha  occ. eigenvalues --   -0.40932  -0.40857  -0.40545  -0.39660  -0.39315
 Alpha  occ. eigenvalues --   -0.38875  -0.38773  -0.38260  -0.37660  -0.36768
 Alpha  occ. eigenvalues --   -0.35889  -0.35192  -0.34664  -0.33026  -0.32811
 Alpha  occ. eigenvalues --   -0.32465  -0.32335  -0.31041  -0.29867  -0.26967
 Alpha  occ. eigenvalues --   -0.26674  -0.25379  -0.24848
 Alpha virt. eigenvalues --   -0.09195  -0.05864  -0.04227  -0.01297   0.01285
 Alpha virt. eigenvalues --    0.03905   0.07083   0.08657   0.09176   0.09781
 Alpha virt. eigenvalues --    0.10134   0.10651   0.11429   0.11956   0.12196

  Beta  occ. eigenvalues --  -19.22841 -14.42145 -14.37791 -14.34682 -10.32332
  Beta  occ. eigenvalues --  -10.30851 -10.26472 -10.26420 -10.25599 -10.25301
  Beta  occ. eigenvalues --  -10.24990 -10.24365 -10.23517 -10.23289 -10.22937
  Beta  occ. eigenvalues --  -10.22435 -10.22236 -10.21874 -10.21780 -10.20412
  Beta  occ. eigenvalues --  -10.20123 -10.18528 -10.18467 -10.18195 -10.18189
  Beta  occ. eigenvalues --  -10.17961  -1.11805  -1.06147  -0.94358  -0.92215
  Beta  occ. eigenvalues --   -0.90388  -0.87964  -0.83288  -0.82847  -0.81258
  Beta  occ. eigenvalues --   -0.78761  -0.76361  -0.74521  -0.73850  -0.72230
  Beta  occ. eigenvalues --   -0.71169  -0.69151  -0.66979  -0.65421  -0.64069
  Beta  occ. eigenvalues --   -0.61828  -0.61375  -0.60876  -0.59510  -0.57874
  Beta  occ. eigenvalues --   -0.56434  -0.54737  -0.53445  -0.52417  -0.51443
  Beta  occ. eigenvalues --   -0.49839  -0.49092  -0.48215  -0.47854  -0.46996
  Beta  occ. eigenvalues --   -0.46227  -0.46086  -0.45043  -0.44703  -0.44382
  Beta  occ. eigenvalues --   -0.44279  -0.43567  -0.42843  -0.41939  -0.41868
  Beta  occ. eigenvalues --   -0.40919  -0.40696  -0.40419  -0.39547  -0.39262
  Beta  occ. eigenvalues --   -0.38672  -0.38275  -0.38223  -0.37494  -0.35778
  Beta  occ. eigenvalues --   -0.35222  -0.35181  -0.34661  -0.32776  -0.32561
  Beta  occ. eigenvalues --   -0.32464  -0.32335  -0.30320  -0.29667  -0.26687
  Beta  occ. eigenvalues --   -0.25405  -0.25208
  Beta virt. eigenvalues --   -0.19231  -0.08458  -0.05153  -0.02222  -0.00599
  Beta virt. eigenvalues --    0.01862   0.04354   0.07093   0.08658   0.09206
  Beta virt. eigenvalues --    0.09814   0.10230   0.10702   0.12063   0.12217

 Mulliken charges and spin densities:
               1          2
     1  C    0.264736   0.073272
     2  C    0.298018   0.036173
     3  C   -0.100310   0.006511
     4  C   -0.106044   0.018251
     5  C   -0.158585   0.073158
     6  C    0.102904  -0.031160
     7  C    0.592282  -0.036254
     8  H    0.139110  -0.000647
     9  H    0.132255  -0.001100
    10  H    0.135555  -0.003129
    11  N   -0.718481   0.060740
    12  C    0.325406   0.194941
    13  C    0.106545   0.178870
    14  C   -0.157891  -0.093834
    15  C    0.135135   0.282365
    16  C   -0.129875  -0.015522
    17  C    0.122311   0.061408
    18  H    0.149725   0.002581
    19  H    0.141244  -0.000368
    20  C   -0.388891  -0.015955
    21  H    0.142749  -0.000002
    22  H    0.161786   0.016993
    23  H    0.160642   0.015684
    24  C   -0.374222  -0.004353
    25  H    0.151732   0.003579
    26  H    0.153160   0.003969
    27  H    0.139524  -0.000286
    28  O   -0.512319   0.167442
    29  H    0.401441  -0.004115
    30  N   -0.653367   0.014650
    31  H    0.317289  -0.000556
    32  C    0.166127   0.005962
    33  H    0.122452  -0.000249
    34  N   -0.491079  -0.008760
    35  C    0.058898   0.000547
    36  C   -0.178531  -0.000390
    37  C   -0.182118  -0.000334
    38  H    0.094190  -0.000019
    39  C   -0.186269  -0.000041
    40  H    0.102851   0.000017
    41  H    0.099655   0.000008
    42  C   -0.186963  -0.000026
    43  H    0.103902   0.000016
    44  H    0.099945   0.000005
    45  C   -0.180168   0.000003
    46  H    0.097737  -0.000025
    47  H    0.098435   0.000001
    48  H    0.097644  -0.000023
    49  H    0.098356   0.000000
    50  H    0.094987   0.000001
    51  H    0.096385   0.000000
 Sum of Mulliken charges =   1.00000   1.00000

 Dipole moment (field-independent basis, Debye):
    X=             -2.2859    Y=             -0.1583    Z=              1.7946  Tot=              2.9105
 Quadrupole moment (field-independent basis, Debye-Ang):
   XX=           -113.8345   YY=            -79.8038   ZZ=           -151.9836
   XY=             16.9553   XZ=             -1.0955   YZ=             -3.0655

  Exact polarizability: 475.555  90.669 960.601   0.587 -33.312 177.666
 Approx polarizability: 503.661  11.605 901.167   4.303 -31.829 201.104

                      1                      2                      3
                      A                      A                      A
 Frequencies --     36.2648                39.8318                65.0157
 Red. masses --      4.6947                 4.1776                 4.8545
 Frc consts  --      0.0036                 0.0039                 0.0121
 IR Inten    --      4.0005                 0.5426                 0.8470

                      4                      5                      6
                      A                      A                      A
 Frequencies --     71.6942                81.8849                95.1307
 Red. masses --      4.5240                 2.9405                 2.4849
 Frc consts  --      0.0137                 0.0116                 0.0132
 IR Inten    --      1.5653                 0.2111                 3.2434

                      7                      8                      9
                      A                      A                      A
 Frequencies --    101.2285               121.7654               128.8577
 Red. masses --      1.2926                 4.1051                 5.5405
 Frc consts  --      0.0078                 0.0359                 0.0542
 IR Inten    --      0.7531                 3.0253                 0.1676

                     10                     11                     12
                      A                      A                      A
 Frequencies --    148.1184               181.2268               188.2631
 Red. masses --      4.4397                 1.9886                 1.9773
 Frc consts  --      0.0574                 0.0385                 0.0413
 IR Inten    --      4.4075                 0.4144                 2.0213

                     13                     14                     15
                      A                      A                      A
 Frequencies --    208.8285               224.8495               226.1278
 Red. masses --      3.2399                 2.9639                 2.1758
 Frc consts  --      0.0832                 0.0883                 0.0656
 IR Inten    --      2.8307                 2.6141                 0.1978

                     16                     17                     18
                      A                      A                      A
 Frequencies --    243.6128               251.3555               269.8303
 Red. masses --      3.9416                 1.8894                 4.6560
 Frc consts  --      0.1378                 0.0703                 0.1997
 IR Inten    --     58.9316                 0.4565                 1.0249

                     19                     20                     21
                      A                      A                      A
 Frequencies --    302.1596               302.9280               318.1863
 Red. masses --      3.3973                 4.1544                 4.6844
 Frc consts  --      0.1828                 0.2246                 0.2794
 IR Inten    --     74.6600                 5.3476                11.5546

                     22                     23                     24
                      A                      A                      A
 Frequencies --    337.2957               362.2767               370.9641
 Red. masses --      2.2791                 3.1037                 4.1999
 Frc consts  --      0.1528                 0.2400                 0.3405
 IR Inten    --     35.6586                89.8220                12.4392

                     25                     26                     27
                      A                      A                      A
 Frequencies --    394.1889               411.3496               444.4451
 Red. masses --      4.6489                 3.4403                 4.2164
 Frc consts  --      0.4256                 0.3430                 0.4907
 IR Inten    --      0.2074                20.1637                 0.5255

                     28                     29                     30
                      A                      A                      A
 Frequencies --    453.1582               457.7609               498.6793
 Red. masses --      3.3038                 5.4506                 2.2303
 Frc consts  --      0.3997                 0.6729                 0.3268
 IR Inten    --      0.2835               176.5785                 2.1047

                     31                     32                     33
                      A                      A                      A
 Frequencies --    518.7674               524.6684               533.0974
 Red. masses --      4.5858                 4.5068                 3.2683
 Frc consts  --      0.7271                 0.7309                 0.5472
 IR Inten    --      8.5706                80.5186                 8.0272

                     34                     35                     36
                      A                      A                      A
 Frequencies --    550.1834               559.8428               568.8919
 Red. masses --      3.2408                 3.5152                 2.7715
 Frc consts  --      0.5780                 0.6491                 0.5285
 IR Inten    --    113.6670                 3.4039                 1.1113

                     37                     38                     39
                      A                      A                      A
 Frequencies --    600.0114               605.8815               629.5008
 Red. masses --      4.9565                 3.8075                 5.6038
 Frc consts  --      1.0513                 0.8235                 1.3084
 IR Inten    --      0.7597               173.5327                34.5042

                     40                     41                     42
                      A                      A                      A
 Frequencies --    661.3749               702.2980               744.9388
 Red. masses --      5.2492                 3.0834                 2.4482
 Frc consts  --      1.3528                 0.8960                 0.8005
 IR Inten    --     29.8238                38.6213                35.8549

                     43                     44                     45
                      A                      A                      A
 Frequencies --    748.9475               763.4835               771.3135
 Red. masses --      4.8453                 2.3939                 1.7515
 Frc consts  --      1.6013                 0.8222                 0.6139
 IR Inten    --    289.1547                35.8234                76.7892

                     46                     47                     48
                      A                      A                      A
 Frequencies --    803.6801               806.3117               808.1610
 Red. masses --      2.4634                 3.8656                 1.5425
 Frc consts  --      0.9375                 1.4807                 0.5936
 IR Inten    --      2.2765                 3.7513                 1.0883

                     49                     50                     51
                      A                      A                      A
 Frequencies --    816.6825               856.9518               875.9401
 Red. masses --      2.6568                 2.2633                 5.8600
 Frc consts  --      1.0440                 0.9793                 2.6491
 IR Inten    --     23.5230                12.3830                27.3397

                     52                     53                     54
                      A                      A                      A
 Frequencies --    895.0428               898.9700               902.2050
 Red. masses --      1.2924                 2.1428                 2.2688
 Frc consts  --      0.6100                 1.0203                 1.0881
 IR Inten    --     28.7186                13.9082                19.8367

                     55                     56                     57
                      A                      A                      A
 Frequencies --    907.5403               918.5676               928.8326
 Red. masses --      1.9641                 1.3444                 1.3703
 Frc consts  --      0.9531                 0.6683                 0.6965
 IR Inten    --     11.6344                 0.8812                 1.1314

                     58                     59                     60
                      A                      A                      A
 Frequencies --    943.7042               978.9012               984.9668
 Red. masses --      1.5088                 4.3319                 2.9571
 Frc consts  --      0.7917                 2.4457                 1.6903
 IR Inten    --      0.0044               380.1963                10.3067

                     61                     62                     63
                      A                      A                      A
 Frequencies --    990.9463               995.1045              1012.1562
 Red. masses --      2.6556                 1.3269                 2.0502
 Frc consts  --      1.5364                 0.7741                 1.2375
 IR Inten    --    472.5663                 0.5444               700.4764

                     64                     65                     66
                      A                      A                      A
 Frequencies --   1016.8912              1038.8203              1043.0013
 Red. masses --      1.5803                 1.7870                 1.5981
 Frc consts  --      0.9628                 1.1362                 1.0243
 IR Inten    --      7.4780                 0.5501                24.1357

                     67                     68                     69
                      A                      A                      A
 Frequencies --   1050.4847              1058.5075              1066.5941
 Red. masses --      1.4477                 1.1151                 1.7960
 Frc consts  --      0.9413                 0.7362                 1.2038
 IR Inten    --     99.5243                98.0732                20.5894

                     70                     71                     72
                      A                      A                      A
 Frequencies --   1068.7997              1074.8602              1086.6161
 Red. masses --      1.7646                 1.4510                 2.8120
 Frc consts  --      1.1877                 0.9877                 1.9562
 IR Inten    --     29.5554                68.1066               143.1377

                     73                     74                     75
                      A                      A                      A
 Frequencies --   1090.4228              1105.6370              1111.2391
 Red. masses --      1.1391                 2.4147                 2.6141
 Frc consts  --      0.7980                 1.7392                 1.9019
 IR Inten    --      0.5067                 0.8608                90.1888

                     76                     77                     78
                      A                      A                      A
 Frequencies --   1138.7681              1170.9629              1190.1524
 Red. masses --      2.0524                 2.2683                 1.8741
 Frc consts  --      1.5682                 1.8325                 1.5640
 IR Inten    --     40.1235               110.3677              1392.1280

                     79                     80                     81
                      A                      A                      A
 Frequencies --   1202.2741              1205.9166              1254.8378
 Red. masses --      1.8100                 1.4843                 2.5359
 Frc consts  --      1.5414                 1.2718                 2.3527
 IR Inten    --    527.5496                 1.6672              2479.8863

                     82                     83                     84
                      A                      A                      A
 Frequencies --   1270.7390              1275.4409              1282.7092
 Red. masses --      1.7364                 1.2888                 1.8696
 Frc consts  --      1.6520                 1.2353                 1.8124
 IR Inten    --    171.6938                21.0513                22.4883

                     85                     86                     87
                      A                      A                      A
 Frequencies --   1288.8508              1295.0617              1306.6325
 Red. masses --      1.2658                 1.3027                 3.0193
 Frc consts  --      1.2388                 1.2873                 3.0371
 IR Inten    --      3.4241                11.2059                 6.3600

                     88                     89                     90
                      A                      A                      A
 Frequencies --   1341.8877              1345.5170              1361.4384
 Red. masses --      1.3162                 1.8995                 2.0488
 Frc consts  --      1.3964                 2.0262                 2.2375
 IR Inten    --      3.3754               107.6246               156.5922

                     91                     92                     93
                      A                      A                      A
 Frequencies --   1364.8326              1370.7664              1381.8825
 Red. masses --      3.1888                 1.4105                 2.2555
 Frc consts  --      3.4998                 1.5615                 2.5377
 IR Inten    --     35.1268                 2.5188               152.8375

                     94                     95                     96
                      A                      A                      A
 Frequencies --   1384.5211              1387.2543              1390.6390
 Red. masses --      2.0644                 1.3685                 1.4531
 Frc consts  --      2.3316                 1.5517                 1.6556
 IR Inten    --     45.8730                 2.7370                 0.6161

                     97                     98                     99
                      A                      A                      A
 Frequencies --   1392.7456              1398.2552              1406.1241
 Red. masses --      1.4756                 3.2188                 1.3271
 Frc consts  --      1.6864                 3.7079                 1.5459
 IR Inten    --      3.7572               199.7950                20.0817

                    100                    101                    102
                      A                      A                      A
 Frequencies --   1416.0897              1422.9438              1434.2497
 Red. masses --      2.0602                 2.5281                 1.3572
 Frc consts  --      2.4341                 3.0159                 1.6450
 IR Inten    --     34.2656                18.1986                13.3712

                    103                    104                    105
                      A                      A                      A
 Frequencies --   1444.6030              1462.4951              1467.1493
 Red. masses --      2.1369                 1.5919                 1.0519
 Frc consts  --      2.6274                 2.0061                 1.3341
 IR Inten    --    455.9138                48.2869                17.9350

                    106                    107                    108
                      A                      A                      A
 Frequencies --   1474.3596              1480.1533              1488.2666
 Red. masses --      1.2864                 1.0562                 1.0921
 Frc consts  --      1.6476                 1.3633                 1.4252
 IR Inten    --    141.6932                18.0893                 1.7409

                    109                    110                    111
                      A                      A                      A
 Frequencies --   1489.8540              1492.2285              1494.5419
 Red. masses --      1.0891                 1.0993                 3.0174
 Frc consts  --      1.4244                 1.4422                 3.9711
 IR Inten    --      2.7011                 6.3523               495.5190

                    112                    113                    114
                      A                      A                      A
 Frequencies --   1500.9654              1507.7271              1514.4748
 Red. masses --      1.0986                 2.2782                 1.0989
 Frc consts  --      1.4583                 3.0514                 1.4850
 IR Inten    --      4.8989               439.0496                 7.0365

                    115                    116                    117
                      A                      A                      A
 Frequencies --   1525.1214              1545.5701              1573.8174
 Red. masses --      2.8295                 3.7677                 6.1615
 Frc consts  --      3.8777                 5.3028                 8.9917
 IR Inten    --    225.7165               135.2992               300.3083

                    118                    119                    120
                      A                      A                      A
 Frequencies --   1601.9672              1637.6608              1651.1333
 Red. masses --      2.0339                 6.6134                 3.6014
 Frc consts  --      3.0753                10.4501                 5.7848
 IR Inten    --    222.7611               623.2145                42.6869

                    121                    122                    123
                      A                      A                      A
 Frequencies --   1667.0952              1702.4062              2405.5185
 Red. masses --      4.2361                 6.8126                 1.0886
 Frc consts  --      6.9364                11.6329                 3.7113
 IR Inten    --    418.5293               137.1465                60.7554

                    124                    125                    126
                      A                      A                      A
 Frequencies --   3037.7334              3041.0021              3043.6944
 Red. masses --      1.0665                 1.0655                 1.0605
 Frc consts  --      5.7985                 5.8055                 5.7884
 IR Inten    --     36.9568                37.5057                79.1375

                    127                    128                    129
                      A                      A                      A
 Frequencies --   3045.9271              3049.3612              3050.5627
 Red. masses --      1.0636                 1.0648                 1.0396
 Frc consts  --      5.8137                 5.8337                 5.6998
 IR Inten    --     16.3852                15.1654                 1.0973

                    130                    131                    132
                      A                      A                      A
 Frequencies --   3061.4733              3068.4212              3085.6369
 Red. masses --      1.0771                 1.0371                 1.0877
 Frc consts  --      5.9478                 5.7530                 6.1017
 IR Inten    --     97.4728                14.6259                79.1804

                    133                    134                    135
                      A                      A                      A
 Frequencies --   3088.2002              3090.4061              3093.7911
 Red. masses --      1.0978                 1.0945                 1.1032
 Frc consts  --      6.1686                 6.1587                 6.2213
 IR Inten    --    117.1745                85.4405                68.4141

                    136                    137                    138
                      A                      A                      A
 Frequencies --   3098.8077              3104.3098              3106.1511
 Red. masses --      1.1048                 1.0989                 1.1023
 Frc consts  --      6.2504                 6.2391                 6.2662
 IR Inten    --     92.7262                 5.2575                93.8848

                    139                    140                    141
                      A                      A                      A
 Frequencies --   3129.0083              3169.4163              3170.2137
 Red. masses --      1.1005                 1.1009                 1.1030
 Frc consts  --      6.3480                 6.5154                 6.5316
 IR Inten    --      9.6044                25.3067                33.7469

                    142                    143                    144
                      A                      A                      A
 Frequencies --   3211.9404              3217.0779              3231.9683
 Red. masses --      1.0902                 1.0916                 1.0905
 Frc consts  --      6.6264                 6.6561                 6.7116
 IR Inten    --     12.9606                39.1771                21.9681

                    145                    146                    147
                      A                      A                      A
 Frequencies --   3233.5024              3245.9749              3522.5641
 Red. masses --      1.0921                 1.0952                 1.0838
 Frc consts  --      6.7277                 6.7985                 7.9238
 IR Inten    --      5.2602                34.1132               425.0195

 - Thermochemistry -
 -------------------
 Temperature   298.150 Kelvin.  Pressure   1.00000 Atm.
 Atom     1 has atomic number  6 and mass  12.00000

 Molecular mass:   347.19976 amu.
 Principal axes and moments of inertia in atomic units:
                           1         2         3
     Eigenvalues --  6221.79991********************
           X            0.82487  -0.56514  -0.01417
           Y            0.56522   0.82401   0.03923
           Z           -0.01049  -0.04037   0.99913
 This molecule is an asymmetric top.
 Rotational symmetry number  1.
 Warning -- assumption of classical behavior for rotation
           may cause significant error
 Rotational temperatures (Kelvin)      0.01392     0.00501     0.00381
 Rotational constants (GHZ):           0.29007     0.10440     0.07929
 Zero-point vibrational energy    1136229.7 (Joules/Mol)
                                  271.56541 (Kcal/Mol)
 Warning -- explicit consideration of  38 degrees of freedom as
           vibrations may cause significant error
 Vibrational temperatures:     52.18    57.31    93.54   103.15   117.81
          (Kelvin)            136.87   145.65   175.19   185.40   213.11
                              260.75   270.87   300.46   323.51   325.35
                              350.50   361.64   388.23   434.74   435.85
                              457.80   485.29   521.24   533.73   567.15
                              591.84   639.46   651.99   658.62   717.49
                              746.39   754.88   767.01   791.59   805.49
                              818.51   863.28   871.73   905.71   951.57
                             1010.45  1071.80  1077.57  1098.48  1109.75
                             1156.32  1160.10  1162.76  1175.02  1232.96
                             1260.28  1287.77  1293.42  1298.07  1305.75
                             1321.61  1336.38  1357.78  1408.42  1417.15
                             1425.75  1431.73  1456.27  1463.08  1494.63
                             1500.65  1511.41  1522.96  1534.59  1537.76
                             1546.48  1563.40  1568.88  1590.77  1598.83
                             1638.43  1684.75  1712.36  1729.80  1735.05
                             1805.43  1828.31  1835.07  1845.53  1854.37
                             1863.30  1879.95  1930.68  1935.90  1958.81
                             1963.69  1972.23  1988.22  1992.02  1995.95
                             2000.82  2003.85  2011.78  2023.10  2037.44
                             2047.30  2063.57  2078.46  2104.20  2110.90
                             2121.27  2129.61  2141.28  2143.57  2146.98
                             2150.31  2159.55  2169.28  2178.99  2194.31
                             2223.73  2264.37  2304.87  2356.23  2375.61
                             2398.58  2449.38  3461.00  4370.62  4375.32
                             4379.20  4382.41  4387.35  4389.08  4404.78
                             4414.77  4439.54  4443.23  4446.41  4451.28
                             4458.49  4466.41  4469.06  4501.95  4560.08
                             4561.23  4621.27  4628.66  4650.08  4652.29
                             4670.23  5068.18

 Zero-point correction=                           0.432767 (Hartree/Particle)
 Thermal correction to Energy=                    0.455238
 Thermal correction to Enthalpy=                  0.456183
 Thermal correction to Gibbs Free Energy=         0.380984
 Sum of electronic and zero-point Energies=          -1092.449110
 Sum of electronic and thermal Energies=             -1092.426639
 Sum of electronic and thermal Enthalpies=           -1092.425695
 Sum of electronic and thermal Free Energies=        -1092.500893

                     E (Thermal)             CV                S
                      KCal/Mol        Cal/Mol-Kelvin    Cal/Mol-Kelvin
 Total                  285.666             90.280            158.269
 Electronic               0.000              0.000              1.377
 Translational            0.889              2.981             43.428
 Rotational               0.889              2.981             36.147
 Vibrational            283.889             84.318             77.317
 Vibration     1          0.594              1.982              5.453
 Vibration     2          0.594              1.981              5.267
 Vibration     3          0.597              1.971              4.299
 Vibration     4          0.598              1.968              4.106
 Vibration     5          0.600              1.962              3.845
 Vibration     6          0.603              1.953              3.552
 Vibration     7          0.604              1.948              3.431
 Vibration     8          0.609              1.931              3.072
 Vibration     9          0.611              1.924              2.963
 Vibration    10          0.617              1.905              2.696
 Vibration    11          0.630              1.865              2.316
 Vibration    12          0.633              1.856              2.245
 Vibration    13          0.642              1.827              2.054
 Vibration    14          0.650              1.803              1.920
 Vibration    15          0.650              1.801              1.909
 Vibration    16          0.659              1.773              1.776
 Vibration    17          0.663              1.760              1.721
 Vibration    18          0.674              1.729              1.597
 Vibration    19          0.694              1.670              1.405
 Vibration    20          0.694              1.668              1.401
 Vibration    21          0.705              1.639              1.319
 Vibration    22          0.718              1.601              1.225
 Vibration    23          0.736              1.550              1.112
 Vibration    24          0.743              1.532              1.076
 Vibration    25          0.761              1.483              0.984
 Vibration    26          0.775              1.446              0.922
 Vibration    27          0.804              1.373              0.813
 Vibration    28          0.812              1.354              0.786
 Vibration    29          0.816              1.344              0.773
 Vibration    30          0.854              1.253              0.661
 Vibration    31          0.874              1.208              0.613
 Vibration    32          0.880              1.195              0.599
 Vibration    33          0.888              1.177              0.580
 Vibration    34          0.905              1.139              0.544
 Vibration    35          0.915              1.118              0.524
 Vibration    36          0.925              1.099              0.506
 Vibration    37          0.958              1.032              0.450
 Vibration    38          0.965              1.019              0.440

 Optimization completed.
    -- Stationary point found.
 Normal termination of Gaussian 16 at Fri Dec 14 13:51:46 2018.
