 Gaussian 16, Revision B.01,
 Gaussian 16:  ES64L-G16RevB.01 20-Dec-2017

 ----------------------------------------------------------------------
 #p opt=(tight) freq=internalmodes b3lyp/6-31g(d,p) scrf=(cpcm,solvent=
 dichloromethane,read) nosymm empiricaldispersion=gd3bj int=grid=ultraf
 ine
 ----------------------------------------------------------------------

 --------------------------------------
 Simple amide-monoBIP E2PT optimization
 --------------------------------------
 Symbolic Z-matrix:
 Charge =  1 Multiplicity = 2

 SCF Done:  E(UB3LYP) =  -1169.32767463     A.U. after   19 cycles
 SCF Done:  E(UB3LYP) =  -1169.34690365     A.U. after   18 cycles
 SCF Done:  E(UB3LYP) =  -1169.35189364     A.U. after   14 cycles
 SCF Done:  E(UB3LYP) =  -1169.35466539     A.U. after   13 cycles
 SCF Done:  E(UB3LYP) =  -1169.35547023     A.U. after   13 cycles
 SCF Done:  E(UB3LYP) =  -1169.35556658     A.U. after   13 cycles
 SCF Done:  E(UB3LYP) =  -1169.35557281     A.U. after   13 cycles
 SCF Done:  E(UB3LYP) =  -1169.35565792     A.U. after   12 cycles
 SCF Done:  E(UB3LYP) =  -1169.35566193     A.U. after   11 cycles
 SCF Done:  E(UB3LYP) =  -1169.35567159     A.U. after   11 cycles
 SCF Done:  E(UB3LYP) =  -1169.35567362     A.U. after    8 cycles
 SCF Done:  E(UB3LYP) =  -1169.35567427     A.U. after    9 cycles
 SCF Done:  E(UB3LYP) =  -1169.35567442     A.U. after    7 cycles
 SCF Done:  E(UB3LYP) =  -1169.35567446     A.U. after    6 cycles
 SCF Done:  E(UB3LYP) =  -1169.35567448     A.U. after    5 cycles
 SCF Done:  E(UB3LYP) =  -1169.35567448     A.U. after    4 cycles
 SCF Done:  E(UB3LYP) =  -1169.35567448     A.U. after    4 cycles
 SCF Done:  E(UB3LYP) =  -1169.35567448     A.U. after    4 cycles
 Optimization completed.
    -- Stationary point found.

 Alpha  occ. eigenvalues --  -19.22890 -19.16675 -14.41599 -14.41191 -14.36671
 Alpha  occ. eigenvalues --  -10.36737 -10.30027 -10.28863 -10.26051 -10.25638
 Alpha  occ. eigenvalues --  -10.24393 -10.23906 -10.23549 -10.23336 -10.23216
 Alpha  occ. eigenvalues --  -10.22765 -10.22134 -10.22072 -10.21712 -10.21298
 Alpha  occ. eigenvalues --  -10.20916 -10.18336 -10.18307 -10.17978 -10.17671
 Alpha  occ. eigenvalues --  -10.17495 -10.17462  -1.13573  -1.06269  -1.04945
 Alpha  occ. eigenvalues --   -0.98015  -0.91847  -0.89395  -0.88313  -0.84018
 Alpha  occ. eigenvalues --   -0.83015  -0.80148  -0.78992  -0.75820  -0.73765
 Alpha  occ. eigenvalues --   -0.70652  -0.69778  -0.69430  -0.69035  -0.68767
 Alpha  occ. eigenvalues --   -0.67662  -0.66075  -0.65067  -0.62900  -0.61759
 Alpha  occ. eigenvalues --   -0.60490  -0.58212  -0.57477  -0.54685  -0.54445
 Alpha  occ. eigenvalues --   -0.53089  -0.51906  -0.51005  -0.50381  -0.49479
 Alpha  occ. eigenvalues --   -0.49023  -0.47749  -0.47594  -0.47040  -0.46192
 Alpha  occ. eigenvalues --   -0.45441  -0.45294  -0.44391  -0.44193  -0.43777
 Alpha  occ. eigenvalues --   -0.43088  -0.42721  -0.41796  -0.40626  -0.40499
 Alpha  occ. eigenvalues --   -0.39975  -0.39661  -0.38930  -0.38545  -0.38012
 Alpha  occ. eigenvalues --   -0.37881  -0.37334  -0.36724  -0.35953  -0.35789
 Alpha  occ. eigenvalues --   -0.34728  -0.34669  -0.34392  -0.34000  -0.33654
 Alpha  occ. eigenvalues --   -0.33261  -0.33002  -0.32377  -0.29973  -0.27844
 Alpha  occ. eigenvalues --   -0.27088  -0.25486  -0.22882
 Alpha virt. eigenvalues --   -0.09883  -0.05347  -0.02428  -0.01143   0.01828
 Alpha virt. eigenvalues --    0.04195   0.05792   0.07355   0.09004   0.09541
 Alpha virt. eigenvalues --    0.09796   0.11441   0.11750   0.12369   0.12831

  Beta  occ. eigenvalues --  -19.22890 -19.15862 -14.41596 -14.41154 -14.36587
  Beta  occ. eigenvalues --  -10.36737 -10.30085 -10.28878 -10.26032 -10.25649
  Beta  occ. eigenvalues --  -10.24383 -10.23633 -10.23319 -10.23214 -10.23058
  Beta  occ. eigenvalues --  -10.22403 -10.22166 -10.22115 -10.21732 -10.21314
  Beta  occ. eigenvalues --  -10.21090 -10.18296 -10.18270 -10.17978 -10.17671
  Beta  occ. eigenvalues --  -10.17471 -10.17438  -1.13571  -1.05750  -1.03917
  Beta  occ. eigenvalues --   -0.98009  -0.91733  -0.89076  -0.87954  -0.83710
  Beta  occ. eigenvalues --   -0.82727  -0.80109  -0.78864  -0.75727  -0.72941
  Beta  occ. eigenvalues --   -0.70589  -0.69698  -0.69320  -0.69003  -0.68685
  Beta  occ. eigenvalues --   -0.67638  -0.65998  -0.64996  -0.62628  -0.61596
  Beta  occ. eigenvalues --   -0.60384  -0.58164  -0.57385  -0.54632  -0.54368
  Beta  occ. eigenvalues --   -0.52943  -0.51804  -0.50815  -0.50199  -0.49365
  Beta  occ. eigenvalues --   -0.48934  -0.47636  -0.47369  -0.46905  -0.45937
  Beta  occ. eigenvalues --   -0.45329  -0.44801  -0.44120  -0.44100  -0.43073
  Beta  occ. eigenvalues --   -0.42679  -0.42294  -0.41576  -0.40581  -0.40022
  Beta  occ. eigenvalues --   -0.39957  -0.39508  -0.38722  -0.38505  -0.37874
  Beta  occ. eigenvalues --   -0.37479  -0.37304  -0.36576  -0.35538  -0.34810
  Beta  occ. eigenvalues --   -0.34626  -0.34423  -0.34227  -0.33648  -0.33585
  Beta  occ. eigenvalues --   -0.32920  -0.32246  -0.32123  -0.29291  -0.27146
  Beta  occ. eigenvalues --   -0.26884  -0.24903
  Beta virt. eigenvalues --   -0.15750  -0.09646  -0.04640  -0.01171   0.00168
  Beta virt. eigenvalues --    0.02193   0.04881   0.05799   0.07348   0.09022
  Beta virt. eigenvalues --    0.09555   0.09817   0.11457   0.11840   0.12469

 Mulliken charges and spin densities:
               1          2
     1  C    0.232541  -0.008287
     2  C    0.371503   0.013810
     3  C   -0.082644   0.000346
     4  C   -0.119571   0.012958
     5  C   -0.132942   0.013142
     6  C    0.083020   0.007138
     7  C    0.535412  -0.045404
     8  H    0.149324  -0.000138
     9  H    0.135772  -0.000683
    10  H    0.138235  -0.000589
    11  N   -0.665473   0.019350
    12  C    0.360111  -0.009287
    13  C    0.068900   0.210900
    14  C   -0.162436  -0.083876
    15  C    0.155694   0.364180
    16  C   -0.171477  -0.155497
    17  C    0.113833   0.283692
    18  H    0.142857   0.002350
    19  H    0.120684   0.004675
    20  C   -0.036940  -0.022788
    21  C   -0.015344  -0.018354
    22  O   -0.563723   0.313436
    23  N   -0.737608   0.042445
    24  C    0.609049   0.000038
    25  C   -0.310518   0.013242
    26  H    0.113183  -0.000415
    27  H    0.117900   0.005056
    28  H    0.115509  -0.000083
    29  C   -0.311488   0.012374
    30  H    0.115525  -0.000011
    31  H    0.117689   0.004402
    32  H    0.113013  -0.000419
    33  C   -0.324456   0.000585
    34  H    0.116680   0.000242
    35  H    0.116923   0.000208
    36  H    0.112194  -0.000410
    37  C   -0.315542   0.011341
    38  H    0.109536   0.001372
    39  H    0.119024  -0.001106
    40  H    0.106181  -0.000258
    41  C   -0.316483   0.011363
    42  H    0.119849  -0.001138
    43  H    0.109042   0.001197
    44  H    0.106011  -0.000249
    45  C   -0.323864   0.000074
    46  H    0.113435   0.000251
    47  H    0.113019   0.000244
    48  H    0.110098  -0.000281
    49  O   -0.521035   0.000199
    50  N   -0.569931   0.001610
    51  H    0.349711  -0.000057
    52  H    0.347299  -0.000065
    53  H    0.321366  -0.002247
    54  H    0.401353  -0.000577
 Sum of Mulliken charges =   1.00000   1.00000

 Dipole moment (field-independent basis, Debye):
    X=              2.7216    Y=             10.6717    Z=              2.4864  Tot=             11.2905
 Quadrupole moment (field-independent basis, Debye-Ang):
   XX=           -123.6309   YY=            -52.2680   ZZ=           -158.7113
   XY=             24.6748   XZ=              4.4436   YZ=              5.3776

 Normal termination of Gaussian 16 at Tue Feb 12 17:12:35 2019.

 ----------------------------------------------------------------------
 #P Geom=AllCheck Guess=TCheck SCRF=Check GenChk UB3LYP/6-31G(d,p) Freq
 ----------------------------------------------------------------------

 Structure from the checkpoint file:  "amide-monoBIP-E2PT.chk"
 --------------------------------------
 Simple amide-monoBIP E2PT optimization
 --------------------------------------
 Charge =  1 Multiplicity = 2

                          Input orientation:
 ---------------------------------------------------------------------
 Center     Atomic      Atomic             Coordinates (Angstroms)
 Number     Number       Type             X           Y           Z
 ---------------------------------------------------------------------
      1          6           0       -0.527014    2.714588    0.427516
      2          6           0       -1.909055    2.974525    0.291997
      3          6           0       -2.394626    4.274071    0.180270
      4          6           0       -1.453489    5.308416    0.206050
      5          6           0       -0.079948    5.067957    0.344054
      6          6           0        0.414124    3.761689    0.462404
      7          6           0       -1.505324    0.789626    0.416936
      8          1           0       -3.452029    4.478784    0.071821
      9          1           0       -1.796353    6.331300    0.117990
     10          1           0        0.594180    5.915516    0.355087
     11          7           0       -2.490361    1.726673    0.292805
     12          6           0       -3.119246   -1.161314    0.336256
     13          6           0       -1.748567   -0.640870    0.433854
     14          6           0       -0.677667   -1.505850    0.521103
     15          6           0       -0.858727   -2.903849    0.524037
     16          6           0       -2.173186   -3.414399    0.443508
     17          6           0       -3.298416   -2.618375    0.354005
     18          1           0        0.322045   -1.094590    0.580987
     19          1           0       -2.298893   -4.485612    0.451438
     20          6           0        0.366826   -3.805547    0.590679
     21          6           0       -4.702515   -3.213817    0.274013
     22          8           0       -4.096245   -0.373870    0.237528
     23          7           0       -0.296396    1.366735    0.503430
     24          6           0        1.814594    3.395675    0.621095
     25          6           0        1.248233   -3.515747   -0.645225
     26          1           0        1.553213   -2.467599   -0.679165
     27          1           0        2.149838   -4.132485   -0.604236
     28          1           0        0.713217   -3.749581   -1.568936
     29          6           0        1.168231   -3.477392    1.869023
     30          1           0        0.576762   -3.679859    2.764990
     31          1           0        2.065985   -4.099936    1.902576
     32          1           0        1.481018   -2.431276    1.891175
     33          6           0        0.004137   -5.296029    0.602903
     34          1           0       -0.598207   -5.558767    1.476421
     35          1           0       -0.544674   -5.584532   -0.297177
     36          1           0        0.921353   -5.887654    0.638954
     37          6           0       -5.368251   -2.804110   -1.059228
     38          1           0       -6.367788   -3.244277   -1.112485
     39          1           0       -5.458700   -1.722329   -1.142961
     40          1           0       -4.788652   -3.174730   -1.908879
     41          6           0       -5.549864   -2.706825    1.463678
     42          1           0       -5.660407   -1.624206    1.434827
     43          1           0       -6.542340   -3.163781    1.422880
     44          1           0       -5.084500   -2.986786    2.412439
     45          6           0       -4.670899   -4.749397    0.334707
     46          1           0       -4.109725   -5.177305   -0.500123
     47          1           0       -4.227618   -5.107421    1.267530
     48          1           0       -5.694261   -5.126489    0.280422
     49          8           0        2.152359    2.137227    0.689980
     50          7           0        2.789425    4.270832    0.708043
     51          1           0        2.622135    5.265214    0.684808
     52          1           0        3.741021    3.946652    0.815779
     53          1           0       -3.465489    1.449139    0.218568
     54          1           0        1.324753    1.545401    0.629920
 ---------------------------------------------------------------------

 SCF Done:  E(UB3LYP) =  -1169.35567448     A.U. after    1 cycles
