 Gaussian 16, Revision A.03,
 Gaussian 16:  ES64L-G16RevA.03 25-Dec-2016

 ----------------------------------------------------------------------
 #p opt=(calcfc,tight,ts,noeigentest) freq=internalmodes b3lyp/6-31g(d,
 p) scrf=(cpcm,solvent=dichloromethane,read) nosymm empiricaldispersion
 =gd3bj int=grid=ultrafine
 ----------------------------------------------------------------------

 --------------------------------------------------------------------
 cyclohexylimine monoBIP oxidized, TS opt to both protons transferred
 --------------------------------------------------------------------
 Symbolic Z-matrix:
 Charge =  1 Multiplicity = 2

 SCF Done:  E(UB3LYP) =  -1092.88857171     A.U. after   17 cycles
 Optimization completed.
    -- Stationary point found.
 Normal termination of Gaussian 16 at Sun Dec 16 11:08:05 2018.

 ----------------------------------------------------------------------
 #P Geom=AllCheck Guess=TCheck SCRF=Check GenChk UB3LYP/6-31G(d,p) Freq
 ----------------------------------------------------------------------

 Structure from the checkpoint file:  "cyclohexyl-monoBIP-TS2.chk"
 --------------------------------------------------------------------
 cyclohexylimine monoBIP oxidized, TS opt to both protons transferred
 --------------------------------------------------------------------
 Charge =  1 Multiplicity = 2

                          Input orientation:
 ---------------------------------------------------------------------
 Center     Atomic      Atomic             Coordinates (Angstroms)
 Number     Number       Type             X           Y           Z
 ---------------------------------------------------------------------
      1          6           0       -0.569144    2.975654    0.353010
      2          6           0       -1.961174    3.104012    0.277127
      3          6           0       -2.542752    4.372577    0.191228
      4          6           0       -1.670159    5.463711    0.186451
      5          6           0       -0.268765    5.323858    0.257298
      6          6           0        0.317405    4.059654    0.340882
      7          6           0       -1.370904    0.945093    0.376304
      8          1           0       -3.614318    4.508651    0.127380
      9          1           0       -2.087650    6.460971    0.122328
     10          1           0        0.358400    6.207112    0.240214
     11          7           0       -2.425628    1.802082    0.296747
     12          6           0       -2.820040   -1.111264    0.298281
     13          6           0       -1.493277   -0.492884    0.407065
     14          6           0       -0.365852   -1.286077    0.537301
     15          6           0       -0.458947   -2.689846    0.563986
     16          6           0       -1.732034   -3.301209    0.446954
     17          6           0       -2.889211   -2.571944    0.314466
     18          1           0        0.610208   -0.823224    0.624049
     19          1           0       -1.790906   -4.383976    0.470959
     20          6           0        0.766720   -3.536715    0.700294
     21          1           0        0.988407   -4.037326   -0.249313
     22          1           0        1.636856   -2.944024    0.983301
     23          1           0        0.613477   -4.324198    1.442773
     24          6           0       -4.237021   -3.206535    0.196238
     25          1           0       -4.905753   -2.835846    0.977930
     26          1           0       -4.703634   -2.948581   -0.759074
     27          1           0       -4.161627   -4.291017    0.272711
     28          8           0       -3.870130   -0.428325    0.200953
     29          7           0       -0.224181    1.651911    0.414907
     30          6           0        1.738628    3.750625    0.385152
     31          1           0        2.461084    4.565660    0.368870
     32          7           0        2.102971    2.512775    0.434367
     33          6           0        3.522672    2.132599    0.440536
     34          6           0        4.184496    2.466069   -0.906784
     35          6           0        4.294485    2.770595    1.605824
     36          1           0        3.537245    1.046834    0.572035
     37          6           0        5.651605    2.025664   -0.914830
     38          1           0        4.119562    3.549763   -1.062332
     39          1           0        3.627188    1.989152   -1.717754
     40          6           0        5.759916    2.324463    1.592759
     41          1           0        4.246181    3.861404    1.510039
     42          1           0        3.813096    2.505024    2.550827
     43          6           0        6.429648    2.643945    0.251686
     44          1           0        6.113084    2.294375   -1.869374
     45          1           0        5.698287    0.932533   -0.837469
     46          1           0        6.298829    2.802859    2.415802
     47          1           0        5.807756    1.242980    1.770371
     48          1           0        7.461943    2.281686    0.249637
     49          1           0        6.472894    3.732021    0.120275
     50          1           0       -3.374770    1.436206    0.244908
     51          1           0        0.993467    1.675091    0.438611
 ---------------------------------------------------------------------

 SCF Done:  E(UB3LYP) =  -1092.88857171     A.U. after    1 cycles

 Alpha  occ. eigenvalues --  -19.17183 -14.42265 -14.39504 -14.38109 -10.31544
 Alpha  occ. eigenvalues --  -10.29265 -10.27433 -10.26359 -10.25401 -10.24740
 Alpha  occ. eigenvalues --  -10.24603 -10.23420 -10.23365 -10.23267 -10.22981
 Alpha  occ. eigenvalues --  -10.22853 -10.22621 -10.21963 -10.21647 -10.19927
 Alpha  occ. eigenvalues --  -10.19407 -10.19182 -10.19142 -10.18569 -10.18562
 Alpha  occ. eigenvalues --  -10.18246  -1.07351  -1.05848  -0.97404  -0.93040
 Alpha  occ. eigenvalues --   -0.89556  -0.88239  -0.83875  -0.82465  -0.80377
 Alpha  occ. eigenvalues --   -0.79540  -0.76577  -0.75092  -0.74752  -0.71464
 Alpha  occ. eigenvalues --   -0.69846  -0.68432  -0.68036  -0.66512  -0.63982
 Alpha  occ. eigenvalues --   -0.61984  -0.61921  -0.59974  -0.59220  -0.57281
 Alpha  occ. eigenvalues --   -0.55452  -0.54681  -0.53149  -0.51470  -0.51119
 Alpha  occ. eigenvalues --   -0.50659  -0.49957  -0.49679  -0.48132  -0.46960
 Alpha  occ. eigenvalues --   -0.46056  -0.46000  -0.45099  -0.44904  -0.44525
 Alpha  occ. eigenvalues --   -0.44021  -0.43690  -0.43610  -0.42317  -0.41807
 Alpha  occ. eigenvalues --   -0.41466  -0.41139  -0.40264  -0.39545  -0.39398
 Alpha  occ. eigenvalues --   -0.38841  -0.38698  -0.38456  -0.37493  -0.36847
 Alpha  occ. eigenvalues --   -0.35882  -0.35236  -0.35151  -0.33661  -0.33221
 Alpha  occ. eigenvalues --   -0.32738  -0.30658  -0.30393  -0.29387  -0.29069
 Alpha  occ. eigenvalues --   -0.26533  -0.25885  -0.23313
 Alpha virt. eigenvalues --   -0.09642  -0.05860  -0.02512  -0.01214   0.01105
 Alpha virt. eigenvalues --    0.03139   0.06806   0.08235   0.09348   0.09435
 Alpha virt. eigenvalues --    0.10485   0.11162   0.12080   0.12300   0.12491

  Beta  occ. eigenvalues --  -19.16389 -14.42207 -14.39420 -14.38106 -10.31611
  Beta  occ. eigenvalues --  -10.29283 -10.27435 -10.26335 -10.25398 -10.24441
  Beta  occ. eigenvalues --  -10.24109 -10.23365 -10.23261 -10.23085 -10.22984
  Beta  occ. eigenvalues --  -10.22943 -10.22601 -10.21938 -10.21822 -10.19948
  Beta  occ. eigenvalues --  -10.19425 -10.19181 -10.19142 -10.18569 -10.18562
  Beta  occ. eigenvalues --  -10.18246  -1.07111  -1.04561  -0.97382  -0.92913
  Beta  occ. eigenvalues --   -0.89158  -0.87899  -0.83866  -0.82138  -0.79692
  Beta  occ. eigenvalues --   -0.79428  -0.76403  -0.75092  -0.74738  -0.71436
  Beta  occ. eigenvalues --   -0.69629  -0.68242  -0.67989  -0.66344  -0.63909
  Beta  occ. eigenvalues --   -0.61979  -0.61764  -0.59691  -0.58973  -0.57250
  Beta  occ. eigenvalues --   -0.55411  -0.54603  -0.53006  -0.51348  -0.50971
  Beta  occ. eigenvalues --   -0.50518  -0.49763  -0.49364  -0.48066  -0.46919
  Beta  occ. eigenvalues --   -0.45952  -0.44995  -0.44931  -0.44612  -0.44071
  Beta  occ. eigenvalues --   -0.43948  -0.43537  -0.42753  -0.42240  -0.41744
  Beta  occ. eigenvalues --   -0.41455  -0.40144  -0.40065  -0.39513  -0.39361
  Beta  occ. eigenvalues --   -0.38776  -0.38256  -0.38150  -0.37316  -0.36330
  Beta  occ. eigenvalues --   -0.35865  -0.35151  -0.33576  -0.33217  -0.33146
  Beta  occ. eigenvalues --   -0.32737  -0.30594  -0.29649  -0.29340  -0.28322
  Beta  occ. eigenvalues --   -0.26336  -0.25267
  Beta virt. eigenvalues --   -0.16269  -0.09340  -0.05166  -0.01103  -0.00014
  Beta virt. eigenvalues --    0.01528   0.03800   0.06803   0.08236   0.09365
  Beta virt. eigenvalues --    0.09436   0.10525   0.11217   0.12135   0.12447

 Mulliken charges and spin densities:
               1          2
     1  C    0.223134   0.001860
     2  C    0.385265   0.017760
     3  C   -0.093704  -0.003512
     4  C   -0.113300   0.017637
     5  C   -0.151616   0.014637
     6  C    0.052754   0.003798
     7  C    0.585737  -0.051130
     8  H    0.147185  -0.000017
     9  H    0.133095  -0.000887
    10  H    0.136165  -0.000654
    11  N   -0.669350   0.028690
    12  C    0.358816  -0.013158
    13  C    0.073511   0.229840
    14  C   -0.151142  -0.079308
    15  C    0.125641   0.359838
    16  C   -0.139407  -0.150722
    17  C    0.098951   0.254593
    18  H    0.143633   0.002138
    19  H    0.126833   0.004723
    20  C   -0.388378  -0.024886
    21  H    0.158698   0.022972
    22  H    0.137627   0.001348
    23  H    0.150355   0.013537
    24  C   -0.376936  -0.018318
    25  H    0.146064   0.011350
    26  H    0.147579   0.012075
    27  H    0.131487   0.000148
    28  O   -0.559375   0.307399
    29  N   -0.709678   0.040990
    30  C    0.218651  -0.001517
    31  H    0.164516  -0.000004
    32  N   -0.534772   0.002085
    33  C    0.060788  -0.000128
    34  C   -0.176905   0.000153
    35  C   -0.182323   0.000102
    36  H    0.113916  -0.000007
    37  C   -0.187122   0.000017
    38  H    0.108192  -0.000004
    39  H    0.107283   0.000001
    40  C   -0.188050   0.000006
    41  H    0.109519  -0.000004
    42  H    0.108140   0.000004
    43  C   -0.181151  -0.000001
    44  H    0.102232   0.000015
    45  H    0.101742  -0.000000
    46  H    0.102093   0.000011
    47  H    0.101610   0.000000
    48  H    0.098179  -0.000000
    49  H    0.098560  -0.000000
    50  H    0.328001  -0.002582
    51  H    0.417259  -0.000885
 Sum of Mulliken charges =   1.00000   1.00000

 Dipole moment (field-independent basis, Debye):
    X=              2.2614    Y=              6.0508    Z=              1.8629  Tot=              6.7229
 Quadrupole moment (field-independent basis, Debye-Ang):
   XX=           -115.4770   YY=            -75.7090   ZZ=           -151.4112
   XY=              9.4567   XZ=              1.7000   YZ=              0.1997

  Exact polarizability: 462.930   0.354 612.856  15.174 -12.664 177.073
 Approx polarizability: 512.707 -35.212 636.476  19.265 -15.445 200.850

 ******    1 imaginary frequencies (negative Signs) ******

                      1                      2                      3
                      A                      A                      A
 Frequencies --  -1388.6001                30.4074                42.0067
 Red. masses --      1.0434                 4.2950                 4.2077
 Frc consts  --      1.1854                 0.0023                 0.0044
 IR Inten    --   4678.0327                 0.5771                 0.5987

                      4                      5                      6
                      A                      A                      A
 Frequencies --     51.7766                66.7237                76.1376
 Red. masses --      4.0257                 4.8360                 3.2343
 Frc consts  --      0.0064                 0.0127                 0.0110
 IR Inten    --      1.6403                 2.1910                 0.2432

                      7                      8                      9
                      A                      A                      A
 Frequencies --     91.2128               121.6652               156.8157
 Red. masses --      3.7931                 6.9916                 4.0996
 Frc consts  --      0.0186                 0.0610                 0.0594
 IR Inten    --      1.0320                 1.7812                 3.3684

                     10                     11                     12
                      A                      A                      A
 Frequencies --    163.1263               171.0126               176.6187
 Red. masses --      4.3840                 2.6780                 1.0575
 Frc consts  --      0.0687                 0.0461                 0.0194
 IR Inten    --      2.2720                 0.0391                 0.5369

                     13                     14                     15
                      A                      A                      A
 Frequencies --    185.4755               212.2312               224.0483
 Red. masses --      1.6702                 3.9042                 1.7887
 Frc consts  --      0.0339                 0.1036                 0.0529
 IR Inten    --      3.8982                 0.7130                 0.4888

                     16                     17                     18
                      A                      A                      A
 Frequencies --    232.7734               238.9395               244.4026
 Red. masses --      2.7211                 3.1064                 2.5869
 Frc consts  --      0.0869                 0.1045                 0.0910
 IR Inten    --      1.6152                 2.0161                 3.3506

                     19                     20                     21
                      A                      A                      A
 Frequencies --    267.0812               297.3225               303.8618
 Red. masses --      4.1011                 3.7171                 4.5828
 Frc consts  --      0.1724                 0.1936                 0.2493
 IR Inten    --      0.7636                 5.7998                 0.8349

                     22                     23                     24
                      A                      A                      A
 Frequencies --    339.3205               344.7358               378.6213
 Red. masses --      1.9518                 3.5287                 4.4488
 Frc consts  --      0.1324                 0.2471                 0.3758
 IR Inten    --      1.4373                 4.1543                 6.2879

                     25                     26                     27
                      A                      A                      A
 Frequencies --    381.5406               397.9427               438.9609
 Red. masses --      4.5480                 4.2387                 2.9150
 Frc consts  --      0.3901                 0.3955                 0.3309
 IR Inten    --     10.3533                 3.3857                 0.5569

                     28                     29                     30
                      A                      A                      A
 Frequencies --    451.1211               455.4878               460.4106
 Red. masses --      4.3194                 5.5001                 3.4770
 Frc consts  --      0.5179                 0.6723                 0.4343
 IR Inten    --      4.5615                 6.8699                 1.2711

                     31                     32                     33
                      A                      A                      A
 Frequencies --    502.0112               512.4430               523.6557
 Red. masses --      4.3613                 2.6011                 2.3056
 Frc consts  --      0.6476                 0.4024                 0.3725
 IR Inten    --      1.1803                 7.5679                 3.5921

                     34                     35                     36
                      A                      A                      A
 Frequencies --    531.5082               554.7924               561.3460
 Red. masses --      5.6240                 3.4310                 3.0921
 Frc consts  --      0.9361                 0.6222                 0.5741
 IR Inten    --      4.0794                 1.1893                 1.8944

                     37                     38                     39
                      A                      A                      A
 Frequencies --    569.9375               600.5064               633.8642
 Red. masses --      4.8811                 4.7630                 5.2195
 Frc consts  --      0.9342                 1.0120                 1.2356
 IR Inten    --     48.1683                 1.9599                32.8796

                     40                     41                     42
                      A                      A                      A
 Frequencies --    645.1256               683.4061               724.1583
 Red. masses --      4.7301                 5.1215                 6.7499
 Frc consts  --      1.1599                 1.4093                 2.0855
 IR Inten    --     32.1407                14.6296                 1.0089

                     43                     44                     45
                      A                      A                      A
 Frequencies --    763.8965               766.2818               769.0098
 Red. masses --      3.3088                 2.5035                 1.3806
 Frc consts  --      1.1376                 0.8661                 0.4810
 IR Inten    --     32.6671                16.1833                82.0685

                     46                     47                     48
                      A                      A                      A
 Frequencies --    783.5289               800.7805               804.7448
 Red. masses --      2.8802                 2.2734                 3.6961
 Frc consts  --      1.0418                 0.8589                 1.4103
 IR Inten    --    101.2171                 2.5041                 1.3256

                     49                     50                     51
                      A                      A                      A
 Frequencies --    809.1577               818.4017               849.7023
 Red. masses --      2.2536                 1.5624                 3.5585
 Frc consts  --      0.8694                 0.6166                 1.5138
 IR Inten    --     12.6594                 1.3998                 7.6233

                     52                     53                     54
                      A                      A                      A
 Frequencies --    857.0605               883.1874               898.8326
 Red. masses --      2.8370                 1.3411                 1.6445
 Frc consts  --      1.2278                 0.6163                 0.7828
 IR Inten    --     13.2417                19.4388                 4.4835

                     55                     56                     57
                      A                      A                      A
 Frequencies --    906.6919               907.4268               921.5151
 Red. masses --      1.3797                 1.8742                 5.3554
 Frc consts  --      0.6683                 0.9092                 2.6795
 IR Inten    --      1.2955                 8.1007                 5.4780

                     58                     59                     60
                      A                      A                      A
 Frequencies --    928.1873               948.6467               975.3798
 Red. masses --      1.3680                 1.4348                 4.0349
 Frc consts  --      0.6944                 0.7608                 2.2617
 IR Inten    --      0.6081                 0.6122                19.8264

                     61                     62                     63
                      A                      A                      A
 Frequencies --    990.8872               994.7938               999.9613
 Red. masses --      2.4520                 1.3311                 1.9333
 Frc consts  --      1.4185                 0.7761                 1.1390
 IR Inten    --     20.5596                 0.5384                25.2368

                     64                     65                     66
                      A                      A                      A
 Frequencies --   1013.6538              1034.8995              1038.0103
 Red. masses --      1.5961                 1.7833                 1.5606
 Frc consts  --      0.9662                 1.1253                 0.9907
 IR Inten    --      3.3706                 0.2005                 5.9813

                     67                     68                     69
                      A                      A                      A
 Frequencies --   1047.2952              1055.4279              1065.0076
 Red. masses --      1.5693                 1.6156                 1.5333
 Frc consts  --      1.0141                 1.0603                 1.0247
 IR Inten    --     25.5535                14.8949                 7.8505

                     70                     71                     72
                      A                      A                      A
 Frequencies --   1066.6378              1068.3138              1092.8987
 Red. masses --      2.3753                 2.2892                 1.2438
 Frc consts  --      1.5922                 1.5393                 0.8753
 IR Inten    --     55.1677                13.8844                 0.9269

                     73                     74                     75
                      A                      A                      A
 Frequencies --   1102.9373              1111.1687              1128.3431
 Red. masses --      2.8148                 2.0997                 2.6395
 Frc consts  --      2.0174                 1.5274                 1.9799
 IR Inten    --     25.3522                 3.8102                18.9481

                     76                     77                     78
                      A                      A                      A
 Frequencies --   1172.2386              1174.8983              1190.7806
 Red. masses --      2.2318                 2.0348                 1.5381
 Frc consts  --      1.8069                 1.6549                 1.2850
 IR Inten    --     11.6148                 8.0206                85.9048

                     79                     80                     81
                      A                      A                      A
 Frequencies --   1206.9215              1209.2588              1212.2998
 Red. masses --      1.3961                 1.4686                 1.1989
 Frc consts  --      1.1982                 1.2653                 1.0382
 IR Inten    --     26.9518               104.9788               111.9137

                     82                     83                     84
                      A                      A                      A
 Frequencies --   1253.9616              1272.8870              1281.1294
 Red. masses --      1.7132                 1.2550                 1.7447
 Frc consts  --      1.5872                 1.1980                 1.6871
 IR Inten    --     64.5458                10.2358                43.3353

                     85                     86                     87
                      A                      A                      A
 Frequencies --   1288.5947              1291.9979              1306.1036
 Red. masses --      2.6103                 1.3542                 1.3491
 Frc consts  --      2.5537                 1.3318                 1.3560
 IR Inten    --      2.2593                 0.8800                18.5283

                     88                     89                     90
                      A                      A                      A
 Frequencies --   1330.2942              1335.8377              1343.6085
 Red. masses --      3.3445                 1.6871                 1.6554
 Frc consts  --      3.4872                 1.7738                 1.7607
 IR Inten    --    124.8896                45.9319                10.2740

                     91                     92                     93
                      A                      A                      A
 Frequencies --   1347.9180              1356.2629              1373.6971
 Red. masses --      2.5514                 2.5088                 1.4134
 Frc consts  --      2.7312                 2.7190                 1.5715
 IR Inten    --     14.3629                14.4519                 3.3628

                     94                     95                     96
                      A                      A                      A
 Frequencies --   1384.4791              1390.2015              1392.3428
 Red. masses --      1.5734                 1.5646                 1.7002
 Frc consts  --      1.7769                 1.7815                 1.9419
 IR Inten    --      0.9277                20.2796                13.8869

                     97                     98                     99
                      A                      A                      A
 Frequencies --   1395.9023              1397.0538              1409.2716
 Red. masses --      1.4912                 1.7663                 1.3826
 Frc consts  --      1.7120                 2.0311                 1.6179
 IR Inten    --      2.1294                11.7588                24.5698

                    100                    101                    102
                      A                      A                      A
 Frequencies --   1411.5349              1416.3443              1436.8335
 Red. masses --      1.4888                 2.3092                 1.7314
 Frc consts  --      1.7477                 2.7293                 2.1060
 IR Inten    --     71.0181                82.2216               190.4016

                    103                    104                    105
                      A                      A                      A
 Frequencies --   1445.3594              1467.0918              1467.9921
 Red. masses --      2.3035                 1.8680                 1.8704
 Frc consts  --      2.8353                 2.3688                 2.3749
 IR Inten    --     28.4291               150.5721                30.2361

                    106                    107                    108
                      A                      A                      A
 Frequencies --   1472.8562              1479.5406              1482.8518
 Red. masses --      1.6551                 1.2010                 1.2343
 Frc consts  --      2.1154                 1.5489                 1.5991
 IR Inten    --     41.6362                36.7150                62.1020

                    109                    110                    111
                      A                      A                      A
 Frequencies --   1488.9912              1493.3039              1494.9688
 Red. masses --      1.0910                 1.0948                 1.0949
 Frc consts  --      1.4251                 1.4384                 1.4418
 IR Inten    --      2.6936                 2.0326                 6.9874

                    112                    113                    114
                      A                      A                      A
 Frequencies --   1499.5304              1506.9692              1519.2578
 Red. masses --      1.7264                 1.0988                 1.0995
 Frc consts  --      2.2872                 1.4702                 1.4952
 IR Inten    --    124.7583                 4.4681                 3.6420

                    115                    116                    117
                      A                      A                      A
 Frequencies --   1520.4555              1536.8362              1561.6473
 Red. masses --      2.9409                 4.5888                 4.1847
 Frc consts  --      4.0057                 6.3856                 6.0129
 IR Inten    --     61.1229               150.3931                23.7304

                    118                    119                    120
                      A                      A                      A
 Frequencies --   1580.7686              1633.9777              1642.1310
 Red. masses --      7.7344                 5.5297                 6.3210
 Frc consts  --     11.3870                 8.6985                10.0427
 IR Inten    --    205.1723                54.6988               230.1843

                    121                    122                    123
                      A                      A                      A
 Frequencies --   1666.8205              1682.7330              1951.6329
 Red. masses --      7.5105                 5.9512                 1.1112
 Frc consts  --     12.2941                 9.9285                 2.4937
 IR Inten    --    131.7284                34.3882               338.2072

                    124                    125                    126
                      A                      A                      A
 Frequencies --   3039.1551              3041.6131              3042.2770
 Red. masses --      1.0654                 1.0657                 1.0620
 Frc consts  --      5.7981                 5.8090                 5.7913
 IR Inten    --     37.4476                38.3429                59.8595

                    127                    128                    129
                      A                      A                      A
 Frequencies --   3046.9081              3053.0216              3055.8442
 Red. masses --      1.0616                 1.0401                 1.0638
 Frc consts  --      5.8064                 5.7120                 5.8528
 IR Inten    --     21.4814                 4.5017                17.8437

                    130                    131                    132
                      A                      A                      A
 Frequencies --   3066.5430              3079.5408              3086.6935
 Red. masses --      1.0362                 1.0847                 1.0987
 Frc consts  --      5.7413                 6.0606                 6.1678
 IR Inten    --     15.1927                51.3423                69.0057

                    133                    134                    135
                      A                      A                      A
 Frequencies --   3090.9852              3098.5391              3100.4687
 Red. masses --      1.1020                 1.0984                 1.1033
 Frc consts  --      6.2034                 6.2133                 6.2486
 IR Inten    --     88.9071                83.3829               100.2472

                    136                    137                    138
                      A                      A                      A
 Frequencies --   3111.9278              3113.7046              3125.2056
 Red. masses --      1.0974                 1.1019                 1.0996
 Frc consts  --      6.2614                 6.2940                 6.3279
 IR Inten    --     13.1104                77.1720                11.3291

                    139                    140                    141
                      A                      A                      A
 Frequencies --   3162.3894              3164.8086              3172.6537
 Red. masses --      1.1023                 1.1040                 1.0915
 Frc consts  --      6.4953                 6.5151                 6.4732
 IR Inten    --     21.7419                25.0368                33.1688

                    142                    143                    144
                      A                      A                      A
 Frequencies --   3205.3275              3216.6483              3224.4450
 Red. masses --      1.0913                 1.0905                 1.0912
 Frc consts  --      6.6061                 6.6479                 6.6844
 IR Inten    --     25.8912                 5.1838                 4.1192

                    145                    146                    147
                      A                      A                      A
 Frequencies --   3234.1302              3249.9129              3507.2083
 Red. masses --      1.0917                 1.0943                 1.0842
 Frc consts  --      6.7275                 6.8096                 7.8572
 IR Inten    --     13.4553                 7.4012               345.1738

 - Thermochemistry -
 -------------------
 Temperature   298.150 Kelvin.  Pressure   1.00000 Atm.
 Atom     1 has atomic number  6 and mass  12.00000

 Molecular mass:   347.19976 amu.
 Principal axes and moments of inertia in atomic units:
                           1         2         3
     Eigenvalues --  6967.91835********************
           X            0.82838  -0.55985  -0.01874
           Y            0.56016   0.82800   0.02531
           Z            0.00135  -0.03147   0.99950
 This molecule is an asymmetric top.
 Rotational symmetry number  1.
 Warning -- assumption of classical behavior for rotation
           may cause significant error
 Rotational temperatures (Kelvin)      0.01243     0.00585     0.00412
 Rotational constants (GHZ):           0.25901     0.12185     0.08590
    1 imaginary frequencies ignored.
 Zero-point vibrational energy    1128769.5 (Joules/Mol)
                                  269.78239 (Kcal/Mol)
 Warning -- explicit consideration of  37 degrees of freedom as
           vibrations may cause significant error
 Vibrational temperatures:     43.75    60.44    74.49    96.00   109.55
          (Kelvin)            131.23   175.05   225.62   234.70   246.05
                              254.11   266.86   305.35   322.36   334.91
                              343.78   351.64   384.27   427.78   437.19
                              488.21   496.00   544.75   548.95   572.55
                              631.57   649.06   655.35   662.43   722.28
                              737.29   753.42   764.72   798.22   807.65
                              820.01   863.99   911.99   928.19   983.27
                             1041.90  1099.08  1102.51  1106.43  1127.32
                             1152.14  1157.85  1164.20  1177.50  1222.53
                             1233.12  1270.71  1293.22  1304.53  1305.58
                             1325.85  1335.45  1364.89  1403.35  1425.67
                             1431.29  1438.72  1458.42  1488.99  1493.47
                             1506.82  1518.53  1532.31  1534.65  1537.07
                             1572.44  1586.88  1598.72  1623.43  1686.59
                             1690.42  1713.27  1736.49  1739.85  1744.23
                             1804.17  1831.40  1843.26  1854.00  1858.90
                             1879.19  1914.00  1921.97  1933.15  1939.35
                             1951.36  1976.44  1991.96  2000.19  2003.27
                             2008.39  2010.05  2027.63  2030.88  2037.80
                             2067.28  2079.55  2110.82  2112.11  2119.11
                             2128.73  2133.49  2142.33  2148.53  2150.93
                             2157.49  2168.19  2185.87  2187.60  2211.16
                             2246.86  2274.37  2350.93  2362.66  2398.18
                             2421.08  2807.96  4372.67  4376.20  4377.16
                             4383.82  4392.62  4396.68  4412.07  4430.77
                             4441.06  4447.24  4458.11  4460.88  4477.37
                             4479.93  4496.47  4549.97  4553.45  4564.74
                             4611.75  4628.04  4639.26  4653.19  4675.90
                             5046.09

 Zero-point correction=                           0.429926 (Hartree/Particle)
 Thermal correction to Energy=                    0.452101
 Thermal correction to Enthalpy=                  0.453045
 Thermal correction to Gibbs Free Energy=         0.378382
 Sum of electronic and zero-point Energies=          -1092.458646
 Sum of electronic and thermal Energies=             -1092.436471
 Sum of electronic and thermal Enthalpies=           -1092.435527
 Sum of electronic and thermal Free Energies=        -1092.510189

                     E (Thermal)             CV                S
                      KCal/Mol        Cal/Mol-Kelvin    Cal/Mol-Kelvin
 Total                  283.698             89.447            157.141
 Electronic               0.000              0.000              1.377
 Translational            0.889              2.981             43.428
 Rotational               0.889              2.981             36.026
 Vibrational            281.920             83.485             76.309
 Vibration     1          0.594              1.984              5.803
 Vibration     2          0.595              1.980              5.162
 Vibration     3          0.596              1.977              4.748
 Vibration     4          0.598              1.970              4.248
 Vibration     5          0.599              1.965              3.988
 Vibration     6          0.602              1.955              3.634
 Vibration     7          0.609              1.931              3.074
 Vibration     8          0.620              1.895              2.588
 Vibration     9          0.623              1.888              2.513
 Vibration    10          0.626              1.878              2.424
 Vibration    11          0.628              1.871              2.364
 Vibration    12          0.632              1.860              2.273
 Vibration    13          0.643              1.822              2.024
 Vibration    14          0.649              1.804              1.926
 Vibration    15          0.654              1.791              1.857
 Vibration    16          0.657              1.781              1.811
 Vibration    17          0.660              1.772              1.771
 Vibration    18          0.672              1.734              1.615
 Vibration    19          0.691              1.679              1.432
 Vibration    20          0.695              1.666              1.396
 Vibration    21          0.719              1.597              1.215
 Vibration    22          0.723              1.586              1.190
 Vibration    23          0.749              1.516              1.045
 Vibration    24          0.751              1.510              1.033
 Vibration    25          0.764              1.475              0.970
 Vibration    26          0.799              1.385              0.830
 Vibration    27          0.810              1.358              0.792
 Vibration    28          0.814              1.349              0.779
 Vibration    29          0.818              1.338              0.765
 Vibration    30          0.857              1.246              0.653
 Vibration    31          0.868              1.222              0.628
 Vibration    32          0.879              1.198              0.602
 Vibration    33          0.886              1.180              0.584
 Vibration    34          0.910              1.129              0.534
 Vibration    35          0.917              1.115              0.521
 Vibration    36          0.926              1.096              0.504
 Vibration    37          0.959              1.031              0.449

 Optimization completed.
    -- Stationary point found.
 Normal termination of Gaussian 16 at Sun Dec 16 11:44:57 2018.
