 Gaussian 16, Revision A.03,
 Gaussian 16:  ES64L-G16RevA.03 25-Dec-2016

 ----------------------------------------------------------------------
 #p opt=tight freq=internalmodes b3lyp/6-31g(d,p) scrf=(cpcm,solvent=di
 chloromethane,read) nosymm empiricaldispersion=gd3bj int=grid=ultrafin
 e
 ----------------------------------------------------------------------

 cyclohexylimine monoBIP oxidized, with both protons transferred optimi
 zation
 ----------------------------------------------------------------------
 Symbolic Z-matrix:
 Charge =  1 Multiplicity = 2

 SCF Done:  E(UB3LYP) =  -1092.90943444     A.U. after   18 cycles
 Optimization completed.
    -- Stationary point found.
 Normal termination of Gaussian 16 at Fri Dec 14 10:30:32 2018.

 ----------------------------------------------------------------------
 #P Geom=AllCheck Guess=TCheck SCRF=Check GenChk UB3LYP/6-31G(d,p) Freq
 ----------------------------------------------------------------------

 ----------------------------------------------------------------------
 cyclohexylimine monoBIP oxidized, with both protons transferred optimi
 zation
 ----------------------------------------------------------------------
 Charge =  1 Multiplicity = 2

                          Input orientation:
 ---------------------------------------------------------------------
 Center     Atomic      Atomic             Coordinates (Angstroms)
 Number     Number       Type             X           Y           Z
 ---------------------------------------------------------------------
      1          6           0       -0.522494    2.720922    0.334065
      2          6           0       -1.920373    2.946812    0.271763
      3          6           0       -2.463177    4.228876    0.212392
      4          6           0       -1.570395    5.304776    0.222961
      5          6           0       -0.186106    5.109398    0.284154
      6          6           0        0.370713    3.819494    0.334037
      7          6           0       -1.452750    0.780255    0.352846
      8          1           0       -3.532801    4.387135    0.160090
      9          1           0       -1.960409    6.313878    0.182075
     10          1           0        0.477278    5.966428    0.290185
     11          7           0       -2.471007    1.687951    0.283828
     12          6           0       -3.031591   -1.196578    0.296443
     13          6           0       -1.671580   -0.652467    0.391436
     14          6           0       -0.595272   -1.510036    0.520762
     15          6           0       -0.768284   -2.907891    0.573466
     16          6           0       -2.071581   -3.446043    0.472613
     17          6           0       -3.186202   -2.649233    0.335069
     18          1           0        0.402578   -1.093778    0.592018
     19          1           0       -2.191689   -4.523616    0.512642
     20          6           0        0.420571   -3.801081    0.750214
     21          1           0        1.152428   -3.637097   -0.046592
     22          1           0        0.927532   -3.575929    1.694173
     23          1           0        0.134030   -4.852711    0.751573
     24          6           0       -4.569462   -3.206574    0.234261
     25          1           0       -5.210679   -2.788300    1.015108
     26          1           0       -5.029370   -2.936798   -0.721138
     27          1           0       -4.558879   -4.292528    0.326086
     28          8           0       -4.043749   -0.457165    0.188619
     29          7           0       -0.251649    1.380692    0.383431
     30          6           0        1.789159    3.642879    0.366127
     31          1           0        2.427424    4.519920    0.368273
     32          7           0        2.357617    2.475252    0.390379
     33          6           0        3.814958    2.239787    0.402374
     34          6           0        4.441855    2.621128   -0.946264
     35          6           0        4.493205    2.972796    1.565347
     36          1           0        3.922406    1.163410    0.550830
     37          6           0        5.947690    2.331678   -0.928988
     38          1           0        4.269676    3.689290   -1.122042
     39          1           0        3.947441    2.071074   -1.750988
     40          6           0        5.996832    2.674097    1.574422
     41          1           0        4.341643    4.051631    1.447197
     42          1           0        4.025437    2.676423    2.507393
     43          6           0        6.644252    3.044126    0.235184
     44          1           0        6.391025    2.628503   -1.883476
     45          1           0        6.099723    1.249891   -0.832731
     46          1           0        6.469737    3.218788    2.396102
     47          1           0        6.150556    1.605923    1.769743
     48          1           0        7.708461    2.792674    0.247931
     49          1           0        6.573672    4.129155    0.089523
     50          1           0       -3.441808    1.388416    0.242278
     51          1           0        1.726118    1.665096    0.381226
 ---------------------------------------------------------------------

 SCF Done:  E(UB3LYP) =  -1092.90943444     A.U. after    1 cycles

 Alpha  occ. eigenvalues --  -19.16578 -14.42791 -14.40789 -14.35673 -10.29870
 Alpha  occ. eigenvalues --  -10.29253 -10.28592 -10.25608 -10.25042 -10.25037
 Alpha  occ. eigenvalues --  -10.24026 -10.23812 -10.23611 -10.23064 -10.22983
 Alpha  occ. eigenvalues --  -10.22836 -10.21974 -10.21758 -10.21210 -10.19804
 Alpha  occ. eigenvalues --  -10.19792 -10.19660 -10.19178 -10.18935 -10.18911
 Alpha  occ. eigenvalues --  -10.18515  -1.05925  -1.04510  -1.00968  -0.91061
 Alpha  occ. eigenvalues --   -0.88981  -0.87867  -0.84793  -0.81718  -0.80264
 Alpha  occ. eigenvalues --   -0.79796  -0.76216  -0.75627  -0.75349  -0.71181
 Alpha  occ. eigenvalues --   -0.70237  -0.69029  -0.66842  -0.65522  -0.63743
 Alpha  occ. eigenvalues --   -0.62577  -0.62106  -0.60522  -0.59347  -0.58136
 Alpha  occ. eigenvalues --   -0.56485  -0.54250  -0.52886  -0.51836  -0.51250
 Alpha  occ. eigenvalues --   -0.50274  -0.49534  -0.48256  -0.47985  -0.46740
 Alpha  occ. eigenvalues --   -0.45958  -0.45894  -0.45432  -0.44910  -0.44783
 Alpha  occ. eigenvalues --   -0.43857  -0.43560  -0.43403  -0.43389  -0.41369
 Alpha  occ. eigenvalues --   -0.41107  -0.40856  -0.40063  -0.39904  -0.39347
 Alpha  occ. eigenvalues --   -0.39294  -0.38715  -0.37973  -0.37064  -0.36479
 Alpha  occ. eigenvalues --   -0.36167  -0.35602  -0.34871  -0.33499  -0.33224
 Alpha  occ. eigenvalues --   -0.32718  -0.31341  -0.31169  -0.29898  -0.28502
 Alpha  occ. eigenvalues --   -0.26540  -0.25208  -0.22676
 Alpha virt. eigenvalues --   -0.10759  -0.05464  -0.02229  -0.00757   0.01012
 Alpha virt. eigenvalues --    0.04593   0.06726   0.07800   0.08609   0.09474
 Alpha virt. eigenvalues --    0.10051   0.11461   0.11901   0.12332   0.12490

  Beta  occ. eigenvalues --  -19.15767 -14.42784 -14.40749 -14.35584 -10.29871
  Beta  occ. eigenvalues --  -10.29316 -10.28604 -10.25585 -10.25057 -10.25038
  Beta  occ. eigenvalues --  -10.23600 -10.23532 -10.23530 -10.23062 -10.22815
  Beta  occ. eigenvalues --  -10.22625 -10.22079 -10.21736 -10.21384 -10.19804
  Beta  occ. eigenvalues --  -10.19791 -10.19680 -10.19198 -10.18935 -10.18911
  Beta  occ. eigenvalues --  -10.18515  -1.05228  -1.03659  -1.00953  -0.90937
  Beta  occ. eigenvalues --   -0.88683  -0.87435  -0.84785  -0.81404  -0.80187
  Beta  occ. eigenvalues --   -0.79051  -0.76124  -0.75626  -0.75270  -0.71147
  Beta  occ. eigenvalues --   -0.70232  -0.68723  -0.66636  -0.65441  -0.63670
  Beta  occ. eigenvalues --   -0.62574  -0.62076  -0.60355  -0.58943  -0.57986
  Beta  occ. eigenvalues --   -0.56481  -0.54155  -0.52828  -0.51801  -0.51033
  Beta  occ. eigenvalues --   -0.50069  -0.49342  -0.48020  -0.47884  -0.46709
  Beta  occ. eigenvalues --   -0.45834  -0.45779  -0.44859  -0.44698  -0.44238
  Beta  occ. eigenvalues --   -0.43518  -0.43427  -0.43217  -0.42500  -0.41282
  Beta  occ. eigenvalues --   -0.41100  -0.39996  -0.39858  -0.39775  -0.39297
  Beta  occ. eigenvalues --   -0.39242  -0.38179  -0.37792  -0.36847  -0.36256
  Beta  occ. eigenvalues --   -0.35851  -0.35601  -0.33612  -0.33222  -0.32699
  Beta  occ. eigenvalues --   -0.32532  -0.31268  -0.31116  -0.29157  -0.27718
  Beta  occ. eigenvalues --   -0.26333  -0.24534
  Beta virt. eigenvalues --   -0.15576  -0.10538  -0.04711  -0.00742   0.00310
  Beta virt. eigenvalues --    0.01456   0.05357   0.06728   0.07801   0.08612
  Beta virt. eigenvalues --    0.09484   0.10049   0.11532   0.11906   0.12380

 Mulliken charges and spin densities:
               1          2
     1  C    0.234150  -0.011230
     2  C    0.358239   0.017669
     3  C   -0.079533   0.000282
     4  C   -0.123436   0.015791
     5  C   -0.128299   0.015103
     6  C    0.039542   0.007854
     7  C    0.524910  -0.049664
     8  H    0.147579  -0.000155
     9  H    0.133289  -0.000819
    10  H    0.138245  -0.000674
    11  N   -0.658292   0.020510
    12  C    0.352217  -0.008378
    13  C    0.063615   0.219013
    14  C   -0.152234  -0.090644
    15  C    0.125423   0.361010
    16  C   -0.150979  -0.151779
    17  C    0.098599   0.272292
    18  H    0.132023   0.002590
    19  H    0.123245   0.004683
    20  C   -0.387927  -0.024107
    21  H    0.149983   0.017069
    22  H    0.151934   0.018474
    23  H    0.136721   0.000306
    24  C   -0.377586  -0.019825
    25  H    0.144087   0.011932
    26  H    0.145496   0.012870
    27  H    0.129480   0.000166
    28  O   -0.564154   0.313568
    29  N   -0.688875   0.045987
    30  C    0.207430  -0.001009
    31  H    0.200039   0.000009
    32  N   -0.448063   0.003651
    33  C    0.043301  -0.000207
    34  C   -0.172869   0.000238
    35  C   -0.181590   0.000161
    36  H    0.140305   0.000009
    37  C   -0.188492   0.000023
    38  H    0.114982  -0.000009
    39  H    0.115453  -0.000003
    40  C   -0.189327   0.000008
    41  H    0.117122  -0.000008
    42  H    0.116896   0.000002
    43  C   -0.182383  -0.000002
    44  H    0.106597   0.000021
    45  H    0.105948  -0.000000
    46  H    0.106651   0.000016
    47  H    0.106091   0.000000
    48  H    0.101626  -0.000001
    49  H    0.101052  -0.000000
    50  H    0.317844  -0.002304
    51  H    0.343923  -0.000491
 Sum of Mulliken charges =   1.00000   1.00000

 Dipole moment (field-independent basis, Debye):
    X=              5.9363    Y=              8.2262    Z=              1.9920  Tot=             10.3382
 Quadrupole moment (field-independent basis, Debye-Ang):
   XX=           -104.2133   YY=            -70.4341   ZZ=           -150.7515
   XY=             20.1440   XZ=              2.5226   YZ=              0.8622

  Exact polarizability: 490.763  20.669 607.830  13.777 -13.310 176.572
 Approx polarizability: 538.379 -23.097 634.762  18.079 -15.518 200.174

                      1                      2                      3
                      A                      A                      A
 Frequencies --     30.0786                38.6083                51.1897
 Red. masses --      4.4716                 4.2645                 4.0071
 Frc consts  --      0.0024                 0.0037                 0.0062
 IR Inten    --      0.8103                 0.3507                 1.2106

                      4                      5                      6
                      A                      A                      A
 Frequencies --     60.0488                61.6774                94.5353
 Red. masses --      3.4455                 4.4532                 3.5624
 Frc consts  --      0.0073                 0.0100                 0.0188
 IR Inten    --      1.8337                 2.2507                 0.5739

                      7                      8                      9
                      A                      A                      A
 Frequencies --    105.2910               116.0583               122.4617
 Red. masses --      1.1212                 4.4937                 4.5099
 Frc consts  --      0.0073                 0.0357                 0.0398
 IR Inten    --      0.0641                 5.9337                 4.0218

                     10                     11                     12
                      A                      A                      A
 Frequencies --    147.1496               167.8915               185.1815
 Red. masses --      4.4161                 2.2042                 1.9373
 Frc consts  --      0.0563                 0.0366                 0.0391
 IR Inten    --      5.4447                 0.0093                 2.3336

                     13                     14                     15
                      A                      A                      A
 Frequencies --    199.6415               230.7381               235.2900
 Red. masses --      3.4001                 3.3850                 3.2777
 Frc consts  --      0.0798                 0.1062                 0.1069
 IR Inten    --      1.0267                 1.6052                 2.6942

                     16                     17                     18
                      A                      A                      A
 Frequencies --    239.3099               256.4744               261.2898
 Red. masses --      2.2565                 2.1443                 3.3180
 Frc consts  --      0.0761                 0.0831                 0.1335
 IR Inten    --      2.6067                 0.1495                 0.9143

                     19                     20                     21
                      A                      A                      A
 Frequencies --    294.6970               309.9430               334.2116
 Red. masses --      3.5281                 5.0080                 2.4520
 Frc consts  --      0.1805                 0.2834                 0.1614
 IR Inten    --      4.8977                 0.7294                 2.6393

                     22                     23                     24
                      A                      A                      A
 Frequencies --    341.5129               375.0468               379.6067
 Red. masses --      2.7734                 3.7557                 3.9634
 Frc consts  --      0.1906                 0.3113                 0.3365
 IR Inten    --      0.9031                24.6835                 6.0743

                     25                     26                     27
                      A                      A                      A
 Frequencies --    387.3217               402.5854               442.3871
 Red. masses --      4.3307                 3.5540                 3.9815
 Frc consts  --      0.3828                 0.3394                 0.4591
 IR Inten    --      0.2829                 2.2029                 7.2374

                     28                     29                     30
                      A                      A                      A
 Frequencies --    458.3020               460.5160               495.2191
 Red. masses --      3.2223                 5.7091                 2.5896
 Frc consts  --      0.3988                 0.7134                 0.3742
 IR Inten    --      1.0040                 8.8057                15.4038

                     31                     32                     33
                      A                      A                      A
 Frequencies --    506.2845               521.3655               525.6176
 Red. masses --      4.2948                 3.2257                 3.3040
 Frc consts  --      0.6486                 0.5166                 0.5378
 IR Inten    --      3.7886                 4.5325                 1.2776

                     34                     35                     36
                      A                      A                      A
 Frequencies --    539.7126               555.3280               568.3026
 Red. masses --      3.8762                 3.6607                 2.9424
 Frc consts  --      0.6652                 0.6651                 0.5599
 IR Inten    --      0.1367                25.7108                 3.2302

                     37                     38                     39
                      A                      A                      A
 Frequencies --    599.6732               628.4737               639.2841
 Red. masses --      4.4689                 5.6158                 4.6161
 Frc consts  --      0.9468                 1.3069                 1.1115
 IR Inten    --      0.7147                44.7617                17.5158

                     40                     41                     42
                      A                      A                      A
 Frequencies --    662.6521               724.9294               748.7814
 Red. masses --      4.4933                 3.3642                 4.3262
 Frc consts  --      1.1625                 1.0417                 1.4291
 IR Inten    --     16.1009                23.0022                14.1427

                     43                     44                     45
                      A                      A                      A
 Frequencies --    755.1829               769.1967               785.3358
 Red. masses --      1.3935                 2.1488                 6.2280
 Frc consts  --      0.4682                 0.7491                 2.2631
 IR Inten    --     74.0517                51.9073                27.6301

                     46                     47                     48
                      A                      A                      A
 Frequencies --    797.1247               800.4661               809.2503
 Red. masses --      2.1475                 4.2386                 1.9647
 Frc consts  --      0.8040                 1.6001                 0.7581
 IR Inten    --      0.6529                 3.5768                46.7086

                     49                     50                     51
                      A                      A                      A
 Frequencies --    817.5901               847.6290               852.4552
 Red. masses --      1.4964                 3.2470                 3.2536
 Frc consts  --      0.5894                 1.3745                 1.3930
 IR Inten    --      1.9300                 2.9574                 5.4784

                     52                     53                     54
                      A                      A                      A
 Frequencies --    879.8806               896.8213               898.0326
 Red. masses --      1.6891                 1.2792                 1.6700
 Frc consts  --      0.7705                 0.6062                 0.7935
 IR Inten    --     40.1898                18.3388                 2.5697

                     55                     56                     57
                      A                      A                      A
 Frequencies --    909.8696               912.2993               934.4094
 Red. masses --      4.2426                 1.8266                 1.3705
 Frc consts  --      2.0694                 0.8957                 0.7050
 IR Inten    --     17.4424                38.8730                 6.8140

                     58                     59                     60
                      A                      A                      A
 Frequencies --    938.3377               947.6660               975.4289
 Red. masses --      1.3517                 1.5465                 4.0935
 Frc consts  --      0.7012                 0.8183                 2.2948
 IR Inten    --      2.3848                 0.0885                19.5021

                     61                     62                     63
                      A                      A                      A
 Frequencies --    987.0272               993.7348               996.4261
 Red. masses --      2.7078                 2.2345                 1.3038
 Frc consts  --      1.5542                 1.3001                 0.7627
 IR Inten    --      0.9861                25.1838                 0.0522

                     64                     65                     66
                      A                      A                      A
 Frequencies --   1022.0103              1037.1620              1048.0446
 Red. masses --      1.6830                 1.7919                 2.3593
 Frc consts  --      1.0358                 1.1357                 1.5268
 IR Inten    --     46.3106                 0.6553                10.2750

                     67                     68                     69
                      A                      A                      A
 Frequencies --   1049.6660              1056.9289              1057.9159
 Red. masses --      1.5919                 1.5567                 1.9234
 Frc consts  --      1.0334                 1.0246                 1.2683
 IR Inten    --     19.4697                 2.2599                36.6217

                     70                     71                     72
                      A                      A                      A
 Frequencies --   1061.6342              1078.3290              1092.5500
 Red. masses --      1.7162                 1.2640                 1.8637
 Frc consts  --      1.1397                 0.8659                 1.3107
 IR Inten    --     47.4158                31.9477                12.6905

                     73                     74                     75
                      A                      A                      A
 Frequencies --   1095.8670              1109.9358              1117.8038
 Red. masses --      1.2922                 2.2255                 2.1580
 Frc consts  --      0.9143                 1.6153                 1.5887
 IR Inten    --      4.0647                32.4897                52.1631

                     76                     77                     78
                      A                      A                      A
 Frequencies --   1155.5029              1173.4772              1190.2385
 Red. masses --      1.9472                 2.2785                 1.4909
 Frc consts  --      1.5318                 1.8486                 1.2445
 IR Inten    --      1.9318                11.0125                79.3788

                     79                     80                     81
                      A                      A                      A
 Frequencies --   1209.5918              1213.3387              1256.2070
 Red. masses --      1.5362                 1.6497                 1.6991
 Frc consts  --      1.3242                 1.4309                 1.5798
 IR Inten    --     13.6234                63.4536                28.0314

                     82                     83                     84
                      A                      A                      A
 Frequencies --   1270.0614              1278.8963              1284.5295
 Red. masses --      1.6297                 1.3080                 2.7563
 Frc consts  --      1.5489                 1.2604                 2.6796
 IR Inten    --    256.4822                 0.4782                 1.6814

                     85                     86                     87
                      A                      A                      A
 Frequencies --   1287.2989              1306.5982              1323.1533
 Red. masses --      1.2902                 1.4878                 4.9666
 Frc consts  --      1.2597                 1.4965                 5.1231
 IR Inten    --      1.8830                56.5627                84.5693

                     88                     89                     90
                      A                      A                      A
 Frequencies --   1326.9275              1340.3809              1351.7555
 Red. masses --      3.1893                 1.3151                 2.7862
 Frc consts  --      3.3086                 1.3921                 2.9996
 IR Inten    --    239.3329                 4.3259                74.7250

                     91                     92                     93
                      A                      A                      A
 Frequencies --   1357.8193              1372.3262              1378.2669
 Red. masses --      1.6453                 1.4112                 1.6923
 Frc consts  --      1.7872                 1.5658                 1.8941
 IR Inten    --     58.9220                 2.3235                16.7480

                     94                     95                     96
                      A                      A                      A
 Frequencies --   1383.0675              1390.8510              1394.2369
 Red. masses --      2.8797                 1.4938                 1.4615
 Frc consts  --      3.2455                 1.7026                 1.6738
 IR Inten    --     39.4475                18.9203                 0.4953

                     97                     98                     99
                      A                      A                      A
 Frequencies --   1406.2445              1411.8734              1412.3898
 Red. masses --      1.3807                 1.3728                 1.3506
 Frc consts  --      1.6086                 1.6123                 1.5875
 IR Inten    --     12.5879                 2.2618                44.2346

                    100                    101                    102
                      A                      A                      A
 Frequencies --   1425.0263              1433.0915              1436.9082
 Red. masses --      2.0421                 2.4656                 2.7967
 Frc consts  --      2.4433                 2.9834                 3.4021
 IR Inten    --    314.5272               121.1486               136.2981

                    103                    104                    105
                      A                      A                      A
 Frequencies --   1464.8783              1466.7949              1470.6844
 Red. masses --      1.8434                 1.6168                 1.3647
 Frc consts  --      2.3306                 2.0495                 1.7390
 IR Inten    --     22.7050                10.5205                61.3481

                    106                    107                    108
                      A                      A                      A
 Frequencies --   1471.4531              1480.8190              1483.9864
 Red. masses --      1.1063                 1.1193                 1.1435
 Frc consts  --      1.4113                 1.4461                 1.4838
 IR Inten    --     23.3308                 6.3412                43.5422

                    109                    110                    111
                      A                      A                      A
 Frequencies --   1487.8870              1490.7454              1491.6359
 Red. masses --      1.1061                 1.0968                 1.8643
 Frc consts  --      1.4428                 1.4360                 2.4440
 IR Inten    --      3.5395                 5.9142               216.8301

                    112                    113                    114
                      A                      A                      A
 Frequencies --   1500.3302              1506.2237              1519.2739
 Red. masses --      1.5689                 1.0969                 1.2646
 Frc consts  --      2.0807                 1.4662                 1.7198
 IR Inten    --     29.3605                 6.7054                24.0456

                    115                    116                    117
                      A                      A                      A
 Frequencies --   1520.2279              1531.6313              1553.7053
 Red. masses --      1.9887                 3.5421                 4.0080
 Frc consts  --      2.7079                 4.8958                 5.7005
 IR Inten    --     68.3548               116.0576                45.9419

                    118                    119                    120
                      A                      A                      A
 Frequencies --   1570.9676              1628.2457              1635.3216
 Red. masses --      7.6750                 6.5655                 5.4500
 Frc consts  --     11.1600                10.2555                 8.5872
 IR Inten    --    171.6233               309.2507               151.0373

                    121                    122                    123
                      A                      A                      A
 Frequencies --   1666.5982              1712.8648              3041.0721
 Red. masses --      6.7547                 3.5559                 1.0660
 Frc consts  --     11.0540                 6.1468                 5.8087
 IR Inten    --     27.1866               697.9616                39.0496

                    124                    125                    126
                      A                      A                      A
 Frequencies --   3046.3029              3047.9151              3051.3254
 Red. masses --      1.0636                 1.0624                 1.0615
 Frc consts  --      5.8152                 5.8147                 5.8232
 IR Inten    --     38.8555                57.1991                10.9400

                    127                    128                    129
                      A                      A                      A
 Frequencies --   3052.8087              3056.0334              3065.3508
 Red. masses --      1.0385                 1.0633                 1.0370
 Frc consts  --      5.7021                 5.8507                 5.7411
 IR Inten    --      5.6294                27.5417                17.8816

                    130                    131                    132
                      A                      A                      A
 Frequencies --   3093.4367              3096.0886              3098.7729
 Red. masses --      1.0972                 1.1009                 1.1042
 Frc consts  --      6.1859                 6.2176                 6.2474
 IR Inten    --     82.6735                66.6209                95.7847

                    133                    134                    135
                      A                      A                      A
 Frequencies --   3101.0469              3110.5548              3111.2337
 Red. masses --      1.0978                 1.0991                 1.0972
 Frc consts  --      6.2202                 6.2657                 6.2574
 IR Inten    --     13.1449                10.3734                38.8863

                    136                    137                    138
                      A                      A                      A
 Frequencies --   3119.6233              3122.6725              3157.4322
 Red. masses --      1.0969                 1.0993                 1.1022
 Frc consts  --      6.2897                 6.3157                 6.4743
 IR Inten    --     95.1351                12.8148                36.0713

                    139                    140                    141
                      A                      A                      A
 Frequencies --   3164.3166              3203.8811              3218.8682
 Red. masses --      1.1033                 1.0911                 1.0903
 Frc consts  --      6.5089                 6.5986                 6.6560
 IR Inten    --     28.2113                29.6009                 7.2889

                    142                    143                    144
                      A                      A                      A
 Frequencies --   3225.5471              3227.3837              3232.4817
 Red. masses --      1.0922                 1.0907                 1.0909
 Frc consts  --      6.6952                 6.6937                 6.7160
 IR Inten    --      4.5274                 2.9875                 3.3379

                    145                    146                    147
                      A                      A                      A
 Frequencies --   3244.9164              3356.5046              3534.7265
 Red. masses --      1.0964                 1.0814                 1.0837
 Frc consts  --      6.8020                 7.1783                 7.9775
 IR Inten    --     15.8595               288.9963               364.4734

 - Thermochemistry -
 -------------------
 Temperature   298.150 Kelvin.  Pressure   1.00000 Atm.
 Atom     1 has atomic number  6 and mass  12.00000

 Molecular mass:   347.19976 amu.
 Principal axes and moments of inertia in atomic units:
                           1         2         3
     Eigenvalues --  6473.18457********************
           X            0.83029  -0.55713  -0.01491
           Y            0.55731   0.82980   0.02901
           Z           -0.00379  -0.03240   0.99947
 This molecule is an asymmetric top.
 Rotational symmetry number  1.
 Warning -- assumption of classical behavior for rotation
           may cause significant error
 Rotational temperatures (Kelvin)      0.01338     0.00515     0.00384
 Rotational constants (GHZ):           0.27880     0.10723     0.08008
 Zero-point vibrational energy    1142680.8 (Joules/Mol)
                                  273.10726 (Kcal/Mol)
 Warning -- explicit consideration of  37 degrees of freedom as
           vibrations may cause significant error
 Vibrational temperatures:     43.28    55.55    73.65    86.40    88.74
          (Kelvin)            136.02   151.49   166.98   176.20   211.72
                              241.56   266.43   287.24   331.98   338.53
                              344.31   369.01   375.94   424.00   445.94
                              480.86   491.36   539.61   546.17   557.27
                              579.23   636.50   659.39   662.58   712.51
                              728.43   750.13   756.25   776.53   798.99
                              817.66   862.80   904.23   919.79   953.41
                             1043.01  1077.33  1086.54  1106.70  1129.92
                             1146.88  1151.69  1164.33  1176.33  1219.55
                             1226.49  1265.95  1290.33  1292.07  1309.10
                             1312.60  1344.41  1350.06  1363.48  1403.42
                             1420.11  1429.76  1433.63  1470.44  1492.24
                             1507.90  1510.24  1520.68  1522.11  1527.45
                             1551.47  1571.94  1576.71  1596.95  1608.27
                             1662.51  1688.37  1712.49  1740.33  1745.72
                             1807.40  1827.34  1840.05  1848.15  1852.14
                             1879.90  1903.72  1909.15  1928.51  1944.87
                             1953.60  1974.47  1983.02  1989.93  2001.12
                             2006.00  2023.27  2031.37  2032.11  2050.30
                             2061.90  2067.39  2107.63  2110.39  2115.99
                             2117.09  2130.57  2135.13  2140.74  2144.85
                             2146.13  2158.64  2167.12  2185.90  2187.27
                             2203.68  2235.44  2260.27  2342.68  2352.86
                             2397.86  2464.43  4375.42  4382.95  4385.27
                             4390.18  4392.31  4396.95  4410.36  4450.77
                             4454.58  4458.44  4461.71  4475.39  4476.37
                             4488.44  4492.83  4542.84  4552.75  4609.67
                             4631.23  4640.84  4643.49  4650.82  4668.71
                             4829.26  5085.68

 Zero-point correction=                           0.435224 (Hartree/Particle)
 Thermal correction to Energy=                    0.457830
 Thermal correction to Enthalpy=                  0.458775
 Thermal correction to Gibbs Free Energy=         0.382603
 Sum of electronic and zero-point Energies=          -1092.474210
 Sum of electronic and thermal Energies=             -1092.451604
 Sum of electronic and thermal Enthalpies=           -1092.450660
 Sum of electronic and thermal Free Energies=        -1092.526831

                     E (Thermal)             CV                S
                      KCal/Mol        Cal/Mol-Kelvin    Cal/Mol-Kelvin
 Total                  287.293             90.326            160.316
 Electronic               0.000              0.000              1.377
 Translational            0.889              2.981             43.428
 Rotational               0.889              2.981             36.150
 Vibrational            285.516             84.365             79.361
 Vibration     1          0.594              1.984              5.824
 Vibration     2          0.594              1.981              5.329
 Vibration     3          0.595              1.977              4.771
 Vibration     4          0.597              1.973              4.456
 Vibration     5          0.597              1.973              4.403
 Vibration     6          0.603              1.953              3.564
 Vibration     7          0.605              1.945              3.354
 Vibration     8          0.608              1.936              3.165
 Vibration     9          0.610              1.930              3.061
 Vibration    10          0.617              1.906              2.709
 Vibration    11          0.625              1.882              2.459
 Vibration    12          0.631              1.860              2.276
 Vibration    13          0.638              1.840              2.136
 Vibration    14          0.652              1.794              1.873
 Vibration    15          0.655              1.787              1.838
 Vibration    16          0.657              1.780              1.808
 Vibration    17          0.666              1.752              1.686
 Vibration    18          0.669              1.744              1.653
 Vibration    19          0.689              1.684              1.447
 Vibration    20          0.699              1.655              1.363
 Vibration    21          0.716              1.607              1.240
 Vibration    22          0.721              1.593              1.205
 Vibration    23          0.746              1.523              1.059
 Vibration    24          0.750              1.514              1.041
 Vibration    25          0.756              1.497              1.010
 Vibration    26          0.768              1.465              0.953
 Vibration    27          0.802              1.378              0.819
 Vibration    28          0.816              1.343              0.771
 Vibration    29          0.818              1.338              0.765
 Vibration    30          0.851              1.261              0.670
 Vibration    31          0.862              1.236              0.643
 Vibration    32          0.876              1.203              0.607
 Vibration    33          0.881              1.193              0.597
 Vibration    34          0.895              1.162              0.566
 Vibration    35          0.911              1.128              0.533
 Vibration    36          0.924              1.100              0.508
 Vibration    37          0.958              1.032              0.450

 Optimization completed.
    -- Stationary point found.
 Normal termination of Gaussian 16 at Fri Dec 14 11:07:28 2018.
