 Gaussian 16, Revision A.03,
 Gaussian 16:  ES64L-G16RevA.03 25-Dec-2016

 ----------------------------------------------------------------------
 #p opt=tight freq=internalmodes b3lyp/6-31g(d,p) scrf=(cpcm,solvent=di
 chloromethane,read) nosymm empiricaldispersion=gd3bj int=grid=ultrafin
 e
 ----------------------------------------------------------------------

 --------------------------------------------
 cyclohexylimine monoBIP neutral optimization
 --------------------------------------------
 Symbolic Z-matrix:
 Charge =  0 Multiplicity = 1

 SCF Done:  E(RB3LYP) =  -1093.08026187     A.U. after   13 cycles
 Optimization completed.
    -- Stationary point found.
 Normal termination of Gaussian 16 at Thu Dec 13 14:19:58 2018.

 ----------------------------------------------------------------------
 #P Geom=AllCheck Guess=TCheck SCRF=Check GenChk RB3LYP/6-31G(d,p) Freq
 ----------------------------------------------------------------------

 Structure from the checkpoint file:  "cyclohexyl-monoBIP-neutral.chk"
 --------------------------------------------
 cyclohexylimine monoBIP neutral optimization
 --------------------------------------------
 Charge =  0 Multiplicity = 1

                          Input orientation:
 ---------------------------------------------------------------------
 Center     Atomic      Atomic             Coordinates (Angstroms)
 Number     Number       Type             X           Y           Z
 ---------------------------------------------------------------------
      1          6           0       -0.464016    2.687907    0.302918
      2          6           0       -1.865592    2.861694    0.266958
      3          6           0       -2.406128    4.150853    0.194177
      4          6           0       -1.519270    5.227263    0.165183
      5          6           0       -0.128231    5.037800    0.200664
      6          6           0        0.440920    3.759294    0.268134
      7          6           0       -1.486085    0.719710    0.368798
      8          1           0       -3.478186    4.302097    0.162417
      9          1           0       -1.911621    6.236101    0.112988
     10          1           0        0.530326    5.899288    0.176209
     11          7           0       -2.473534    1.616523    0.308464
     12          6           0       -3.027505   -1.214277    0.365002
     13          6           0       -1.702172   -0.716102    0.417776
     14          6           0       -0.628631   -1.619999    0.499398
     15          6           0       -0.838191   -2.994148    0.533102
     16          6           0       -2.162132   -3.457845    0.476757
     17          6           0       -3.257186   -2.601750    0.396295
     18          1           0        0.385673   -1.236769    0.542363
     19          1           0       -2.342285   -4.528541    0.501258
     20          6           0        0.316003   -3.960563    0.629400
     21          1           0        1.051190   -3.789018   -0.162099
     22          1           0        0.842452   -3.860889    1.583888
     23          1           0       -0.034136   -4.991455    0.548166
     24          6           0       -4.667919   -3.118784    0.339484
     25          1           0       -5.273600   -2.703515    1.150189
     26          1           0       -5.159514   -2.833373   -0.595691
     27          1           0       -4.683477   -4.206905    0.418466
     28          8           0       -4.104821   -0.402634    0.284758
     29          1           0       -3.773832    0.540227    0.280353
     30          7           0       -0.257510    1.330909    0.368136
     31          1           0        0.672409    0.929681    0.395081
     32          6           0        1.885543    3.552563    0.294638
     33          1           0        2.495162    4.461370    0.240612
     34          7           0        2.393902    2.378618    0.377624
     35          6           0        3.859284    2.262967    0.403824
     36          6           0        4.498506    2.699094   -0.924819
     37          6           0        4.498399    3.019840    1.580094
     38          1           0        4.075136    1.197155    0.541106
     39          6           0        6.015675    2.482711   -0.895801
     40          1           0        4.279374    3.761530   -1.085188
     41          1           0        4.041718    2.145649   -1.750758
     42          6           0        6.014261    2.795815    1.613456
     43          1           0        4.295379    4.091638    1.467922
     44          1           0        4.031049    2.701085    2.516487
     45          6           0        6.661290    3.212743    0.287433
     46          1           0        6.461519    2.812467   -1.839203
     47          1           0        6.219816    1.407819   -0.809903
     48          1           0        6.454588    3.351723    2.447047
     49          1           0        6.218205    1.733493    1.797219
     50          1           0        7.738403    3.020732    0.311445
     51          1           0        6.534339    4.294400    0.152747
 ---------------------------------------------------------------------

 SCF Done:  E(RB3LYP) =  -1093.08026187     A.U. after    1 cycles

 Alpha  occ. eigenvalues --  -19.15905 -14.38616 -14.33313 -14.32845 -10.26992
 Alpha  occ. eigenvalues --  -10.24795 -10.23255 -10.22956 -10.21902 -10.20701
 Alpha  occ. eigenvalues --  -10.20399 -10.20281 -10.19681 -10.19611 -10.19102
 Alpha  occ. eigenvalues --  -10.19037 -10.19018 -10.18961 -10.18504 -10.17566
 Alpha  occ. eigenvalues --  -10.17557 -10.17512 -10.17468 -10.17417 -10.17416
 Alpha  occ. eigenvalues --  -10.17251  -1.04789  -1.02240  -0.92455  -0.88419
 Alpha  occ. eigenvalues --   -0.86073  -0.84989  -0.81911  -0.78623  -0.77270
 Alpha  occ. eigenvalues --   -0.76404  -0.73649  -0.73152  -0.72429  -0.68647
 Alpha  occ. eigenvalues --   -0.67378  -0.65653  -0.64290  -0.61626  -0.61372
 Alpha  occ. eigenvalues --   -0.60505  -0.58849  -0.57307  -0.56690  -0.55196
 Alpha  occ. eigenvalues --   -0.53400  -0.51123  -0.50872  -0.49074  -0.47801
 Alpha  occ. eigenvalues --   -0.47443  -0.46008  -0.45657  -0.44534  -0.44041
 Alpha  occ. eigenvalues --   -0.43742  -0.43381  -0.42789  -0.42552  -0.41327
 Alpha  occ. eigenvalues --   -0.40770  -0.40452  -0.39903  -0.39664  -0.39484
 Alpha  occ. eigenvalues --   -0.38496  -0.38131  -0.37397  -0.37385  -0.36795
 Alpha  occ. eigenvalues --   -0.36381  -0.35785  -0.34855  -0.34083  -0.33815
 Alpha  occ. eigenvalues --   -0.33385  -0.33135  -0.32021  -0.31604  -0.31489
 Alpha  occ. eigenvalues --   -0.30653  -0.28821  -0.28418  -0.26656  -0.25090
 Alpha  occ. eigenvalues --   -0.22825  -0.22436  -0.20501
 Alpha virt. eigenvalues --   -0.05876  -0.02449   0.01083   0.01740   0.04624
 Alpha virt. eigenvalues --    0.07587   0.08941   0.09508   0.10547   0.11334
 Alpha virt. eigenvalues --    0.11965   0.12644   0.13407   0.13771   0.13964

 Mulliken charges:
               1
     1  C    0.250027
     2  C    0.261904
     3  C   -0.130168
     4  C   -0.121535
     5  C   -0.176911
     6  C    0.092925
     7  C    0.550451
     8  H    0.117712
     9  H    0.110009
    10  H    0.112729
    11  N   -0.723278
    12  C    0.231566
    13  C    0.080215
    14  C   -0.195470
    15  C    0.104364
    16  C   -0.183834
    17  C    0.091789
    18  H    0.103853
    19  H    0.095507
    20  C   -0.386810
    21  H    0.126262
    22  H    0.128312
    23  H    0.119650
    24  C   -0.376097
    25  H    0.127579
    26  H    0.128414
    27  H    0.116296
    28  O   -0.614657
    29  H    0.352531
    30  N   -0.667890
    31  H    0.299948
    32  C    0.147561
    33  H    0.108610
    34  N   -0.490887
    35  C    0.061428
    36  C   -0.178032
    37  C   -0.181337
    38  H    0.090081
    39  C   -0.186014
    40  H    0.100443
    41  H    0.098235
    42  C   -0.186523
    43  H    0.101461
    44  H    0.098169
    45  C   -0.179603
    46  H    0.094845
    47  H    0.097243
    48  H    0.094701
    49  H    0.097156
    50  H    0.092171
    51  H    0.094896
 Sum of Mulliken charges =  -0.00000

 Dipole moment (field-independent basis, Debye):
    X=              6.1766    Y=              1.5864    Z=              0.0296  Tot=              6.3772
 Quadrupole moment (field-independent basis, Debye-Ang):
   XX=           -151.3770   YY=           -126.1133   ZZ=           -156.9402
   XY=              7.9022   XZ=              2.1410   YZ=             -0.7305

  Exact polarizability: 450.798   9.711 513.076   7.787 -12.731 179.255
 Approx polarizability: 493.257 -13.756 560.188  10.008 -14.884 202.204

                      1                      2                      3
                      A                      A                      A
 Frequencies --     22.6923                35.8182                60.0409
 Red. masses --      4.3219                 4.6304                 4.3871
 Frc consts  --      0.0013                 0.0035                 0.0093
 IR Inten    --      0.1424                 0.3734                 2.3143

                      4                      5                      6
                      A                      A                      A
 Frequencies --     62.4225                77.7892                82.0901
 Red. masses --      4.1911                 1.1351                 2.9576
 Frc consts  --      0.0096                 0.0040                 0.0117
 IR Inten    --      0.1079                 0.1796                 0.0354

                      7                      8                      9
                      A                      A                      A
 Frequencies --     96.5821               121.4976               133.9741
 Red. masses --      3.6502                 4.3320                 4.9476
 Frc consts  --      0.0201                 0.0377                 0.0523
 IR Inten    --      0.5042                 2.8350                 0.4175

                     10                     11                     12
                      A                      A                      A
 Frequencies --    146.9375               170.0669               182.3034
 Red. masses --      4.6228                 1.5412                 2.1598
 Frc consts  --      0.0588                 0.0263                 0.0423
 IR Inten    --      2.9363                 0.5718                 0.6589

                     13                     14                     15
                      A                      A                      A
 Frequencies --    212.8677               225.1444               234.5423
 Red. masses --      3.4666                 2.9727                 2.5622
 Frc consts  --      0.0926                 0.0888                 0.0830
 IR Inten    --      0.4918                 2.6310                 1.5215

                     16                     17                     18
                      A                      A                      A
 Frequencies --    238.8035               240.8006               266.7252
 Red. masses --      2.1809                 3.2425                 4.5120
 Frc consts  --      0.0733                 0.1108                 0.1891
 IR Inten    --      0.3757                 2.4102                 1.2022

                     19                     20                     21
                      A                      A                      A
 Frequencies --    295.5797               311.4948               325.7191
 Red. masses --      3.5644                 3.7059                 5.1391
 Frc consts  --      0.1835                 0.2119                 0.3212
 IR Inten    --      1.0593                14.2350                 2.5554

                     22                     23                     24
                      A                      A                      A
 Frequencies --    340.2009               368.8495               380.9667
 Red. masses --      2.0286                 4.1713                 4.3594
 Frc consts  --      0.1383                 0.3344                 0.3728
 IR Inten    --      1.3416                 9.5803                 7.5859

                     25                     26                     27
                      A                      A                      A
 Frequencies --    396.3513               409.1485               445.9437
 Red. masses --      4.6904                 3.4725                 4.2555
 Frc consts  --      0.4341                 0.3425                 0.4986
 IR Inten    --      0.6113                 1.7607                 4.2079

                     28                     29                     30
                      A                      A                      A
 Frequencies --    450.9581               473.1202               495.1349
 Red. masses --      3.2950                 5.8143                 2.1269
 Frc consts  --      0.3948                 0.7668                 0.3072
 IR Inten    --      0.0797                 6.0503                 2.8491

                     31                     32                     33
                      A                      A                      A
 Frequencies --    522.7394               529.0492               537.9333
 Red. masses --      4.7134                 3.3355                 3.7192
 Frc consts  --      0.7589                 0.5501                 0.6341
 IR Inten    --      7.2034                 7.2497                 0.4377

                     34                     35                     36
                      A                      A                      A
 Frequencies --    559.0574               566.8828               573.0899
 Red. masses --      3.6615                 3.8713                 3.1389
 Frc consts  --      0.6742                 0.7330                 0.6074
 IR Inten    --     10.9297                 0.3200                 1.8918

                     37                     38                     39
                      A                      A                      A
 Frequencies --    613.5101               628.3224               636.6954
 Red. masses --      4.5799                 4.0287                 6.1349
 Frc consts  --      1.0157                 0.9371                 1.4653
 IR Inten    --      1.4442                35.4946                 0.1604

                     40                     41                     42
                      A                      A                      A
 Frequencies --    649.4341               663.2539               724.4331
 Red. masses --      1.3863                 5.2390                 4.0909
 Frc consts  --      0.3445                 1.3579                 1.2649
 IR Inten    --    110.0071                 5.4373                36.2793

                     43                     44                     45
                      A                      A                      A
 Frequencies --    754.8961               757.5481               764.7529
 Red. masses --      3.3260                 3.7808                 2.4620
 Frc consts  --      1.1167                 1.2784                 0.8484
 IR Inten    --     35.8872                29.9595                 7.8357

                     46                     47                     48
                      A                      A                      A
 Frequencies --    791.9468               798.0595               801.8191
 Red. masses --      1.1363                 1.6183                 3.1920
 Frc consts  --      0.4199                 0.6073                 1.2091
 IR Inten    --    128.9527                 0.6463                10.1892

                     49                     50                     51
                      A                      A                      A
 Frequencies --    804.1485               812.7334               858.0197
 Red. masses --      2.6332                 2.3954                 2.2809
 Frc consts  --      1.0032                 0.9322                 0.9894
 IR Inten    --     17.9292                32.6682                 5.7423

                     52                     53                     54
                      A                      A                      A
 Frequencies --    877.7714               881.0366               899.7587
 Red. masses --      2.2387                 2.0402                 1.7047
 Frc consts  --      1.0163                 0.9330                 0.8131
 IR Inten    --     20.0762                23.7531                10.1120

                     55                     56                     57
                      A                      A                      A
 Frequencies --    901.9893               907.3118               912.9641
 Red. masses --      1.8084                 2.9298                 1.4023
 Frc consts  --      0.8668                 1.4210                 0.6886
 IR Inten    --      5.0396                 8.0419                 0.6587

                     58                     59                     60
                      A                      A                      A
 Frequencies --    916.7752               940.8816               982.7347
 Red. masses --      1.3703                 1.5705                 1.5446
 Frc consts  --      0.6786                 0.8191                 0.8789
 IR Inten    --      0.9707                 0.0143                 1.1964

                     61                     62                     63
                      A                      A                      A
 Frequencies --    983.3536               990.0040              1002.2719
 Red. masses --      2.0961                 4.4765                 2.5651
 Frc consts  --      1.1942                 2.5850                 1.5182
 IR Inten    --      3.2726                 1.0564                 1.0937

                     64                     65                     66
                      A                      A                      A
 Frequencies --   1022.2815              1037.2960              1041.3505
 Red. masses --      1.5851                 1.7686                 1.6229
 Frc consts  --      0.9760                 1.1212                 1.0369
 IR Inten    --      5.5256                 0.4497                46.2100

                     67                     68                     69
                      A                      A                      A
 Frequencies --   1043.3483              1065.4956              1067.1663
 Red. masses --      1.8979                 1.4793                 1.4590
 Frc consts  --      1.2172                 0.9895                 0.9790
 IR Inten    --      3.5078                 9.2263                 3.0851

                     70                     71                     72
                      A                      A                      A
 Frequencies --   1071.6395              1072.6929              1089.1573
 Red. masses --      2.4280                 1.4703                 1.1034
 Frc consts  --      1.6429                 0.9968                 0.7712
 IR Inten    --     32.0585                 2.0870                 0.8363

                     73                     74                     75
                      A                      A                      A
 Frequencies --   1092.5819              1105.0214              1108.2604
 Red. masses --      2.4277                 2.5817                 2.6966
 Frc consts  --      1.7075                 1.8574                 1.9514
 IR Inten    --     54.5979                 0.7289                 8.3371

                     76                     77                     78
                      A                      A                      A
 Frequencies --   1144.6440              1170.5026              1197.0413
 Red. masses --      1.8783                 2.2883                 1.3727
 Frc consts  --      1.4499                 1.8472                 1.1589
 IR Inten    --     43.4827                 5.3337                 9.7298

                     79                     80                     81
                      A                      A                      A
 Frequencies --   1203.5962              1215.4894              1264.9264
 Red. masses --      1.5002                 1.7281                 1.8099
 Frc consts  --      1.2804                 1.5042                 1.7062
 IR Inten    --      0.2462                11.6313                 5.9472

                     82                     83                     84
                      A                      A                      A
 Frequencies --   1273.4305              1283.3746              1287.4745
 Red. masses --      1.2891                 2.1691                 1.2643
 Frc consts  --      1.2317                 2.1049                 1.2347
 IR Inten    --      0.4184                59.3455                 3.3829

                     85                     86                     87
                      A                      A                      A
 Frequencies --   1291.5729              1294.1154              1308.9466
 Red. masses --      1.9675                 1.3410                 3.5366
 Frc consts  --      1.9337                 1.3232                 3.5700
 IR Inten    --     56.2520                25.9358               275.4974

                     88                     89                     90
                      A                      A                      A
 Frequencies --   1322.9894              1336.2509              1338.9179
 Red. masses --      4.9974                 3.7844                 1.3161
 Frc consts  --      5.1535                 3.9813                 1.3901
 IR Inten    --     56.5887                 7.4219                 0.5300

                     91                     92                     93
                      A                      A                      A
 Frequencies --   1349.3206              1363.8375              1369.4113
 Red. masses --      1.5962                 2.8196                 1.4127
 Frc consts  --      1.7122                 3.0901                 1.5609
 IR Inten    --     43.3840               131.9108                 3.9139

                     94                     95                     96
                      A                      A                      A
 Frequencies --   1381.5648              1386.2275              1389.9492
 Red. masses --      1.6103                 1.3816                 1.4304
 Frc consts  --      1.8110                 1.5642                 1.6282
 IR Inten    --     14.7595                 4.5926                 2.6355

                     97                     98                     99
                      A                      A                      A
 Frequencies --   1391.4394              1405.6759              1420.9202
 Red. masses --      1.4619                 4.5839                 1.5668
 Frc consts  --      1.6676                 5.3364                 1.8639
 IR Inten    --      9.9454                28.8500                28.0706

                    100                    101                    102
                      A                      A                      A
 Frequencies --   1423.0965              1426.0576              1431.6769
 Red. masses --      1.4059                 2.7475                 1.3013
 Frc consts  --      1.6775                 3.2920                 1.5715
 IR Inten    --     28.0428                18.6757                 2.8955

                    103                    104                    105
                      A                      A                      A
 Frequencies --   1446.1604              1476.0196              1481.7923
 Red. masses --      2.2302                 2.7388                 1.4730
 Frc consts  --      2.7481                 3.5155                 1.9056
 IR Inten    --     48.1722                63.4550               136.3522

                    106                    107                    108
                      A                      A                      A
 Frequencies --   1482.9396              1484.3321              1488.1927
 Red. masses --      1.0961                 1.0480                 1.1231
 Frc consts  --      1.4202                 1.3604                 1.4656
 IR Inten    --      3.7610                 4.8003                62.7257

                    109                    110                    111
                      A                      A                      A
 Frequencies --   1488.7069              1490.8293              1493.0759
 Red. masses --      1.1002                 1.0896                 1.1005
 Frc consts  --      1.4367                 1.4268                 1.4454
 IR Inten    --      0.9965                 7.0980                24.0662

                    112                    113                    114
                      A                      A                      A
 Frequencies --   1496.9951              1510.2230              1524.0588
 Red. masses --      1.1020                 1.1009                 1.9972
 Frc consts  --      1.4550                 1.4794                 2.7332
 IR Inten    --      3.1588                 2.2323               272.2411

                    115                    116                    117
                      A                      A                      A
 Frequencies --   1538.6289              1541.8199              1563.4136
 Red. masses --      3.4374                 2.1735                 5.9366
 Frc consts  --      4.7946                 3.0442                 8.5494
 IR Inten    --     45.2214                36.1141               295.9457

                    118                    119                    120
                      A                      A                      A
 Frequencies --   1649.2483              1655.6984              1663.8999
 Red. masses --      6.5484                 7.1324                 3.8874
 Frc consts  --     10.4945                11.5198                 6.3410
 IR Inten    --     40.1434               107.2347                11.6633

                    121                    122                    123
                      A                      A                      A
 Frequencies --   1681.0376              1703.0336              3035.2598
 Red. masses --      4.5662                 6.8726                 1.0648
 Frc consts  --      7.6026                11.7440                 5.7799
 IR Inten    --     86.7025               155.6355                50.4735

                    124                    125                    126
                      A                      A                      A
 Frequencies --   3039.6887              3039.7339              3042.6540
 Red. masses --      1.0640                 1.0658                 1.0625
 Frc consts  --      5.7922                 5.8024                 5.7955
 IR Inten    --     40.6393                16.1016                71.5897

                    127                    128                    129
                      A                      A                      A
 Frequencies --   3045.1494              3048.4794              3054.7740
 Red. masses --      1.0656                 1.0374                 1.0737
 Frc consts  --      5.8218                 5.6804                 5.9035
 IR Inten    --     28.4731                62.2080                98.9904

                    130                    131                    132
                      A                      A                      A
 Frequencies --   3059.3836              3071.3851              3083.1810
 Red. masses --      1.0366                 1.0860                 1.0992
 Frc consts  --      5.7163                 6.0363                 6.1562
 IR Inten    --     58.8865                77.8784               115.1226

                    133                    134                    135
                      A                      A                      A
 Frequencies --   3085.9863              3092.4320              3094.8567
 Red. masses --      1.0958                 1.1018                 1.1045
 Frc consts  --      6.1484                 6.2079                 6.2327
 IR Inten    --     87.2819                70.8833                88.9950

                    136                    137                    138
                      A                      A                      A
 Frequencies --   3100.0002              3104.9547              3115.5630
 Red. masses --      1.1034                 1.1014                 1.1005
 Frc consts  --      6.2476                 6.2563                 6.2941
 IR Inten    --    118.9238                31.8031                28.6694

                    139                    140                    141
                      A                      A                      A
 Frequencies --   3125.8910              3136.3120              3149.2248
 Red. masses --      1.0711                 1.1019                 1.1026
 Frc consts  --      6.1662                 6.3862                 6.4430
 IR Inten    --   1321.9621                26.6969                19.0621

                    142                    143                    144
                      A                      A                      A
 Frequencies --   3186.1216              3201.0907              3205.1653
 Red. masses --      1.0902                 1.0896                 1.0877
 Frc consts  --      6.5205                 6.5786                 6.5835
 IR Inten    --     21.3309                18.9676                 5.2431

                    145                    146                    147
                      A                      A                      A
 Frequencies --   3217.5184              3232.4544              3593.1484
 Red. masses --      1.0908                 1.0955                 1.0824
 Frc consts  --      6.6530                 6.7444                 8.2332
 IR Inten    --     17.8913                26.3088               252.3576

 - Thermochemistry -
 -------------------
 Temperature   298.150 Kelvin.  Pressure   1.00000 Atm.
 Atom     1 has atomic number  6 and mass  12.00000

 Molecular mass:   347.19976 amu.
 Principal axes and moments of inertia in atomic units:
                           1         2         3
     Eigenvalues --  6248.02133********************
           X            0.82774  -0.56091  -0.01485
           Y            0.56106   0.82702   0.03531
           Z           -0.00752  -0.03756   0.99927
 This molecule is an asymmetric top.
 Rotational symmetry number  1.
 Warning -- assumption of classical behavior for rotation
           may cause significant error
 Rotational temperatures (Kelvin)      0.01386     0.00500     0.00380
 Rotational constants (GHZ):           0.28885     0.10418     0.07908
 Zero-point vibrational energy    1138599.7 (Joules/Mol)
                                  272.13185 (Kcal/Mol)
 Warning -- explicit consideration of  37 degrees of freedom as
           vibrations may cause significant error
 Vibrational temperatures:     32.65    51.53    86.39    89.81   111.92
          (Kelvin)            118.11   138.96   174.81   192.76   211.41
                              244.69   262.29   306.27   323.93   337.45
                              343.58   346.46   383.76   425.27   448.17
                              468.64   489.47   530.69   548.13   570.26
                              588.67   641.61   648.83   680.71   712.39
                              752.11   761.18   773.97   804.36   815.62
                              824.55   882.70   904.02   916.06   934.39
                              954.27  1042.30  1086.13  1089.94  1100.31
                             1139.43  1148.23  1153.64  1156.99  1169.34
                             1234.50  1262.92  1267.62  1294.55  1297.76
                             1305.42  1313.55  1319.04  1353.72  1413.94
                             1414.83  1424.39  1442.05  1470.84  1492.44
                             1498.27  1501.15  1533.01  1535.41  1541.85
                             1543.37  1567.05  1571.98  1589.88  1594.54
                             1646.89  1684.09  1722.28  1731.71  1748.82
                             1819.95  1832.18  1846.49  1852.39  1858.29
                             1861.94  1883.28  1903.49  1922.57  1926.40
                             1941.37  1962.26  1970.28  1987.76  1994.47
                             1999.83  2001.97  2022.45  2044.39  2047.52
                             2051.78  2059.86  2080.70  2123.66  2131.97
                             2133.62  2135.62  2141.18  2141.92  2144.97
                             2148.20  2153.84  2172.87  2192.78  2213.74
                             2218.33  2249.40  2372.90  2382.18  2393.98
                             2418.64  2450.29  4367.06  4373.43  4373.50
                             4377.70  4381.29  4386.08  4395.14  4401.77
                             4419.04  4436.01  4440.05  4449.32  4452.81
                             4460.21  4467.34  4482.60  4497.46  4512.45
                             4531.03  4584.12  4605.66  4611.52  4629.29
                             4650.78  5169.74

 Zero-point correction=                           0.433670 (Hartree/Particle)
 Thermal correction to Energy=                    0.456278
 Thermal correction to Enthalpy=                  0.457222
 Thermal correction to Gibbs Free Energy=         0.381657
 Sum of electronic and zero-point Energies=          -1092.646592
 Sum of electronic and thermal Energies=             -1092.623984
 Sum of electronic and thermal Enthalpies=           -1092.623040
 Sum of electronic and thermal Free Energies=        -1092.698605

                     E (Thermal)             CV                S
                      KCal/Mol        Cal/Mol-Kelvin    Cal/Mol-Kelvin
 Total                  286.319             90.561            159.039
 Electronic               0.000              0.000              0.000
 Translational            0.889              2.981             43.428
 Rotational               0.889              2.981             36.156
 Vibrational            284.541             84.599             79.455
 Vibration     1          0.593              1.985              6.383
 Vibration     2          0.594              1.982              5.478
 Vibration     3          0.597              1.973              4.456
 Vibration     4          0.597              1.972              4.379
 Vibration     5          0.599              1.964              3.946
 Vibration     6          0.600              1.961              3.840
 Vibration     7          0.603              1.952              3.522
 Vibration     8          0.609              1.931              3.076
 Vibration     9          0.613              1.919              2.888
 Vibration    10          0.617              1.906              2.712
 Vibration    11          0.625              1.879              2.435
 Vibration    12          0.630              1.864              2.305
 Vibration    13          0.644              1.821              2.019
 Vibration    14          0.650              1.803              1.917
 Vibration    15          0.654              1.788              1.844
 Vibration    16          0.657              1.781              1.812
 Vibration    17          0.658              1.778              1.797
 Vibration    18          0.672              1.734              1.617
 Vibration    19          0.690              1.682              1.442
 Vibration    20          0.700              1.652              1.354
 Vibration    21          0.710              1.624              1.281
 Vibration    22          0.720              1.595              1.211
 Vibration    23          0.741              1.536              1.085
 Vibration    24          0.751              1.511              1.035
 Vibration    25          0.763              1.478              0.976
 Vibration    26          0.774              1.450              0.930
 Vibration    27          0.805              1.370              0.808
 Vibration    28          0.810              1.359              0.793
 Vibration    29          0.830              1.310              0.729
 Vibration    30          0.851              1.261              0.670
 Vibration    31          0.878              1.200              0.604
 Vibration    32          0.884              1.186              0.589
 Vibration    33          0.893              1.166              0.570
 Vibration    34          0.915              1.120              0.526
 Vibration    35          0.923              1.103              0.510
 Vibration    36          0.929              1.089              0.498
 Vibration    37          0.973              1.003              0.427

 Optimization completed.
    -- Stationary point found.
 Normal termination of Gaussian 16 at Thu Dec 13 14:33:24 2018.
