 Gaussian 16, Revision B.01,
 Gaussian 16:  ES64L-G16RevB.01 20-Dec-2017

 ----------------------------------------------------------------------
 #p opt=tight freq=internalmodes b3lyp/6-31g(d,p) scrf=(cpcm,solvent=di
 chloromethane,read) nosymm empiricaldispersion=gd3bj int=grid=ultrafin
 e
 ----------------------------------------------------------------------

 --------------------------------------
 Simple unsub-monoBIP E0PT optimization
 --------------------------------------
 Symbolic Z-matrix:
 Charge =  1 Multiplicity = 2

 SCF Done:  E(UB3LYP) =  -1000.61325288     A.U. after   22 cycles
 SCF Done:  E(UB3LYP) =  -1000.61860366     A.U. after   17 cycles
 SCF Done:  E(UB3LYP) =  -1000.61861248     A.U. after   14 cycles
 SCF Done:  E(UB3LYP) =  -1000.61911998     A.U. after   16 cycles
 SCF Done:  E(UB3LYP) =  -1000.61947877     A.U. after   15 cycles
 SCF Done:  E(UB3LYP) =  -1000.61934806     A.U. after   15 cycles
 SCF Done:  E(UB3LYP) =  -1000.61967478     A.U. after   13 cycles
 SCF Done:  E(UB3LYP) =  -1000.61970793     A.U. after   14 cycles
 SCF Done:  E(UB3LYP) =  -1000.61972271     A.U. after   14 cycles
 SCF Done:  E(UB3LYP) =  -1000.61973256     A.U. after   11 cycles
 SCF Done:  E(UB3LYP) =  -1000.61974383     A.U. after    7 cycles
 SCF Done:  E(UB3LYP) =  -1000.61974396     A.U. after   10 cycles
 SCF Done:  E(UB3LYP) =  -1000.61974401     A.U. after    9 cycles
 SCF Done:  E(UB3LYP) =  -1000.61974402     A.U. after    8 cycles
 SCF Done:  E(UB3LYP) =  -1000.61974403     A.U. after    4 cycles
 SCF Done:  E(UB3LYP) =  -1000.61974403     A.U. after    4 cycles
 SCF Done:  E(UB3LYP) =  -1000.61974403     A.U. after    4 cycles
 SCF Done:  E(UB3LYP) =  -1000.61974403     A.U. after    3 cycles
 SCF Done:  E(UB3LYP) =  -1000.61974403     A.U. after    4 cycles
 Optimization completed.
    -- Stationary point found.

 Alpha  occ. eigenvalues --  -19.23142 -14.42627 -14.37836 -10.32786 -10.30829
 Alpha  occ. eigenvalues --  -10.26589 -10.26440 -10.25384 -10.25266 -10.24317
 Alpha  occ. eigenvalues --  -10.23512 -10.22805 -10.22540 -10.22317 -10.21898
 Alpha  occ. eigenvalues --  -10.21816 -10.21668 -10.21346 -10.18912 -10.18872
 Alpha  occ. eigenvalues --  -10.18477 -10.18256 -10.18156 -10.18121  -1.12693
 Alpha  occ. eigenvalues --   -1.06254  -0.92704  -0.91159  -0.87802  -0.85276
 Alpha  occ. eigenvalues --   -0.84211  -0.79892  -0.77351  -0.76663  -0.75852
 Alpha  occ. eigenvalues --   -0.70974  -0.69977  -0.69759  -0.69444  -0.67873
 Alpha  occ. eigenvalues --   -0.66295  -0.65567  -0.64620  -0.62975  -0.59362
 Alpha  occ. eigenvalues --   -0.58465  -0.56321  -0.55284  -0.53951  -0.52249
 Alpha  occ. eigenvalues --   -0.50504  -0.49856  -0.49574  -0.47895  -0.47357
 Alpha  occ. eigenvalues --   -0.47296  -0.46170  -0.45836  -0.45486  -0.45333
 Alpha  occ. eigenvalues --   -0.44955  -0.44856  -0.43451  -0.42183  -0.41326
 Alpha  occ. eigenvalues --   -0.40912  -0.39539  -0.39158  -0.39014  -0.38654
 Alpha  occ. eigenvalues --   -0.38537  -0.38238  -0.37834  -0.37220  -0.36909
 Alpha  occ. eigenvalues --   -0.36339  -0.35291  -0.34940  -0.34796  -0.34245
 Alpha  occ. eigenvalues --   -0.34201  -0.33328  -0.32011  -0.30856  -0.26701
 Alpha  occ. eigenvalues --   -0.26105  -0.24756
 Alpha virt. eigenvalues --   -0.08435  -0.04821  -0.02151  -0.01031   0.02866
 Alpha virt. eigenvalues --    0.05636   0.08158   0.08513   0.09069   0.10599
 Alpha virt. eigenvalues --    0.11319   0.12005   0.12355   0.12691   0.13078

  Beta  occ. eigenvalues --  -19.22636 -14.42604 -14.37733 -10.32496 -10.30866
  Beta  occ. eigenvalues --  -10.26377 -10.26354 -10.25339 -10.24859 -10.24183
  Beta  occ. eigenvalues --  -10.23612 -10.22846 -10.22552 -10.22321 -10.21926
  Beta  occ. eigenvalues --  -10.21738 -10.21655 -10.21326 -10.18874 -10.18839
  Beta  occ. eigenvalues --  -10.18477 -10.18257 -10.18143 -10.18109  -1.11700
  Beta  occ. eigenvalues --   -1.06112  -0.92541  -0.90590  -0.87625  -0.85028
  Beta  occ. eigenvalues --   -0.83910  -0.79729  -0.77287  -0.76340  -0.75263
  Beta  occ. eigenvalues --   -0.70835  -0.69866  -0.69722  -0.69396  -0.67759
  Beta  occ. eigenvalues --   -0.66119  -0.65357  -0.64392  -0.62798  -0.59263
  Beta  occ. eigenvalues --   -0.58236  -0.56223  -0.55108  -0.53844  -0.52038
  Beta  occ. eigenvalues --   -0.50413  -0.49432  -0.48994  -0.47811  -0.47264
  Beta  occ. eigenvalues --   -0.46141  -0.45811  -0.45718  -0.45152  -0.44953
  Beta  occ. eigenvalues --   -0.44865  -0.44591  -0.43415  -0.41972  -0.40844
  Beta  occ. eigenvalues --   -0.40777  -0.39330  -0.39123  -0.38980  -0.38520
  Beta  occ. eigenvalues --   -0.38147  -0.37947  -0.37781  -0.37075  -0.36168
  Beta  occ. eigenvalues --   -0.36080  -0.34885  -0.34858  -0.34523  -0.34173
  Beta  occ. eigenvalues --   -0.33732  -0.33224  -0.31794  -0.30076  -0.25941
  Beta  occ. eigenvalues --   -0.25058
  Beta virt. eigenvalues --   -0.19200  -0.07589  -0.02685  -0.01497  -0.00420
  Beta virt. eigenvalues --    0.03614   0.05636   0.08169   0.08572   0.09100
  Beta virt. eigenvalues --    0.10748   0.11992   0.12374   0.12412   0.12818

 Mulliken charges and spin densities:
               1          2
     1  C    0.327351   0.060501
     2  C    0.276721   0.032438
     3  C   -0.107775   0.007460
     4  C   -0.109891   0.013833
     5  C   -0.105757   0.066098
     6  C   -0.106918  -0.030095
     7  C    0.584047  -0.034671
     8  H    0.134140  -0.000647
     9  H    0.127316  -0.000826
    10  H    0.130400  -0.002957
    11  N   -0.712629   0.053289
    12  C    0.327290   0.195780
    13  C    0.110816   0.156125
    14  C   -0.165856  -0.085565
    15  C    0.168052   0.301674
    16  C   -0.160520  -0.043067
    17  C    0.148589   0.100487
    18  H    0.147590   0.002384
    19  H    0.134838   0.000432
    20  C   -0.044792  -0.016909
    21  C   -0.024042  -0.006000
    22  O   -0.514955   0.177877
    23  H    0.404282  -0.004113
    24  N   -0.659958   0.009631
    25  H    0.330206  -0.000490
    26  C   -0.309790   0.014132
    27  H    0.115813  -0.000498
    28  H    0.124115   0.004397
    29  H    0.119904  -0.000082
    30  C   -0.311399   0.012639
    31  H    0.119878   0.000020
    32  H    0.123654   0.003555
    33  H    0.115211  -0.000474
    34  C   -0.327192   0.000484
    35  H    0.120480   0.000304
    36  H    0.120671   0.000263
    37  H    0.117434  -0.000365
    38  C   -0.316228   0.006043
    39  H    0.117336   0.000816
    40  H    0.121937  -0.000553
    41  H    0.112081  -0.000210
    42  C   -0.317821   0.005869
    43  H    0.122898  -0.000553
    44  H    0.116880   0.000711
    45  H    0.111944  -0.000196
    46  C   -0.326487  -0.000206
    47  H    0.118116   0.000263
    48  H    0.117686   0.000269
    49  H    0.116256  -0.000155
    50  H    0.138077   0.000859
 Sum of Mulliken charges =   1.00000   1.00000

 Dipole moment (field-independent basis, Debye):
    X=             -3.6576    Y=             -2.8205    Z=              2.3801  Tot=              5.1960
 Quadrupole moment (field-independent basis, Debye-Ang):
   XX=           -113.9048   YY=            -82.2270   ZZ=           -141.9758
   XY=              9.8448   XZ=              0.2787   YZ=             -2.0531

 Normal termination of Gaussian 16 at Wed Mar  6 12:56:22 2019.

 ----------------------------------------------------------------------
 #P Geom=AllCheck Guess=TCheck SCRF=Check GenChk UB3LYP/6-31G(d,p) Freq
 ----------------------------------------------------------------------

 Structure from the checkpoint file:  "unsub-monoBIP-E0PT.chk"
 --------------------------------------
 Simple unsub-monoBIP E0PT optimization
 --------------------------------------
 Charge =  1 Multiplicity = 2

                          Input orientation:
 ---------------------------------------------------------------------
 Center     Atomic      Atomic             Coordinates (Angstroms)
 Number     Number       Type             X           Y           Z
 ---------------------------------------------------------------------
      1          6           0       -0.476280    2.748976    0.453646
      2          6           0       -1.889081    2.864294    0.303522
      3          6           0       -2.491128    4.128114    0.187570
      4          6           0       -1.657085    5.231819    0.226438
      5          6           0       -0.253106    5.101642    0.377442
      6          6           0        0.362790    3.863798    0.495843
      7          6           0       -1.419161    0.741992    0.429069
      8          1           0       -3.563092    4.224299    0.071725
      9          1           0       -2.081216    6.224891    0.139839
     10          1           0        0.355168    5.997667    0.401104
     11          7           0       -2.434039    1.606165    0.295295
     12          6           0       -2.992800   -1.177100    0.341194
     13          6           0       -1.622599   -0.683611    0.445112
     14          6           0       -0.581827   -1.592793    0.533476
     15          6           0       -0.825432   -2.973480    0.532616
     16          6           0       -2.169266   -3.428525    0.445948
     17          6           0       -3.261320   -2.593943    0.354705
     18          1           0        0.439125   -1.240279    0.596788
     19          1           0       -2.337787   -4.492651    0.451894
     20          6           0        0.348979   -3.937522    0.597883
     21          6           0       -4.691387   -3.129229    0.265311
     22          8           0       -3.981241   -0.338149    0.227430
     23          1           0       -3.600275    0.641859    0.225932
     24          7           0       -0.224128    1.398929    0.530467
     25          1           0        0.684995    0.975108    0.643368
     26          6           0        1.231491   -3.702213   -0.650575
     27          1           0        1.596208   -2.673912   -0.693565
     28          1           0        2.095444   -4.370335   -0.611345
     29          1           0        0.675050   -3.910992   -1.567145
     30          6           0        1.179883   -3.641011    1.866815
     31          1           0        0.584410   -3.796770    2.769170
     32          1           0        2.036583   -4.318601    1.898112
     33          1           0        1.559133   -2.616989    1.874488
     34          6           0       -0.091521   -5.406937    0.627239
     35          1           0       -0.705299   -5.628007    1.504145
     36          1           0       -0.652774   -5.679742   -0.270059
     37          1           0        0.794959   -6.042455    0.671604
     38          6           0       -5.329757   -2.704140   -1.076357
     39          1           0       -6.336963   -3.123657   -1.138503
     40          1           0       -5.403743   -1.621515   -1.169908
     41          1           0       -4.748464   -3.088958   -1.917817
     42          6           0       -5.528432   -2.590090    1.447755
     43          1           0       -5.619299   -1.505321    1.419250
     44          1           0       -6.531172   -3.021927    1.400923
     45          1           0       -5.076413   -2.877862    2.400101
     46          6           0       -4.710093   -4.664895    0.332952
     47          1           0       -4.157587   -5.114516   -0.496146
     48          1           0       -4.286910   -5.032486    1.271240
     49          1           0       -5.744695   -5.007601    0.272311
     50          1           0        1.434251    3.763740    0.611435
 ---------------------------------------------------------------------

 SCF Done:  E(UB3LYP) =  -1000.61974403     A.U. after    1 cycles
