 Gaussian 16, Revision B.01,
 Gaussian 16:  ES64L-G16RevB.01 20-Dec-2017

 ----------------------------------------------------------------------
 #p opt=tight freq=internalmodes b3lyp/6-31g(d,p) scrf=(cpcm,solvent=di
 chloromethane,read) nosymm empiricaldispersion=gd3bj int=grid=ultrafin
 e
 ----------------------------------------------------------------------

 -----------------------------------------
 Simple unsub-monoBIP neutral optimization
 -----------------------------------------
 Symbolic Z-matrix:
 Charge =  0 Multiplicity = 1

 SCF Done:  E(RB3LYP) =  -1000.81765402     A.U. after   13 cycles
 SCF Done:  E(RB3LYP) =  -1000.81855498     A.U. after   10 cycles
 SCF Done:  E(RB3LYP) =  -1000.81838047     A.U. after   10 cycles
 SCF Done:  E(RB3LYP) =  -1000.81864001     A.U. after   10 cycles
 SCF Done:  E(RB3LYP) =  -1000.81865489     A.U. after    8 cycles
 SCF Done:  E(RB3LYP) =  -1000.81868761     A.U. after    8 cycles
 SCF Done:  E(RB3LYP) =  -1000.81868841     A.U. after    7 cycles
 SCF Done:  E(RB3LYP) =  -1000.81868843     A.U. after    7 cycles
 SCF Done:  E(RB3LYP) =  -1000.81868874     A.U. after    7 cycles
 SCF Done:  E(RB3LYP) =  -1000.81868879     A.U. after    5 cycles
 SCF Done:  E(RB3LYP) =  -1000.81868881     A.U. after    5 cycles
 SCF Done:  E(RB3LYP) =  -1000.81868882     A.U. after    5 cycles
 SCF Done:  E(RB3LYP) =  -1000.81868882     A.U. after    4 cycles
 SCF Done:  E(RB3LYP) =  -1000.81868882     A.U. after    4 cycles
 SCF Done:  E(RB3LYP) =  -1000.81868882     A.U. after    3 cycles
 SCF Done:  E(RB3LYP) =  -1000.81868882     A.U. after    3 cycles
 Optimization completed.
    -- Stationary point found.
 Normal termination of Gaussian 16 at Wed Mar  6 12:23:26 2019.

 ----------------------------------------------------------------------
 #P Geom=AllCheck Guess=TCheck SCRF=Check GenChk RB3LYP/6-31G(d,p) Freq
 ----------------------------------------------------------------------

 Structure from the checkpoint file:  "unsub-monoBIP-neutral.chk"
 -----------------------------------------
 Simple unsub-monoBIP neutral optimization
 -----------------------------------------
 Charge =  0 Multiplicity = 1

                          Input orientation:
 ---------------------------------------------------------------------
 Center     Atomic      Atomic             Coordinates (Angstroms)
 Number     Number       Type             X           Y           Z
 ---------------------------------------------------------------------
      1          6           0       -0.471802    2.722723    0.443310
      2          6           0       -1.871767    2.899459    0.317472
      3          6           0       -2.408152    4.186799    0.204121
      4          6           0       -1.522447    5.260833    0.218935
      5          6           0       -0.132853    5.068795    0.345862
      6          6           0        0.419239    3.794568    0.462094
      7          6           0       -1.517936    0.754492    0.440144
      8          1           0       -3.476711    4.333862    0.104043
      9          1           0       -1.909695    6.269666    0.132042
     10          1           0        0.522568    5.932132    0.353976
     11          7           0       -2.490260    1.658528    0.321200
     12          6           0       -3.063165   -1.187424    0.361181
     13          6           0       -1.738927   -0.683865    0.458471
     14          6           0       -0.659758   -1.574795    0.544670
     15          6           0       -0.849361   -2.951304    0.540640
     16          6           0       -2.168657   -3.417812    0.448074
     17          6           0       -3.286212   -2.583583    0.359384
     18          1           0        0.348704   -1.182283    0.609838
     19          1           0       -2.333657   -4.483886    0.443163
     20          6           0        0.362442   -3.887409    0.606004
     21          6           0       -4.705491   -3.165536    0.259631
     22          8           0       -4.116051   -0.344182    0.266260
     23          1           0       -3.764876    0.593734    0.265146
     24          7           0       -0.287388    1.354581    0.522300
     25          1           0        0.597063    0.878639    0.609942
     26          6           0        1.245627   -3.645420   -0.635110
     27          1           0        1.574078   -2.604514   -0.686049
     28          1           0        2.134937   -4.281753   -0.600644
     29          1           0        0.697174   -3.873580   -1.553070
     30          6           0        1.184672   -3.582215    1.873652
     31          1           0        0.592147   -3.758562    2.775299
     32          1           0        2.068169   -4.226022    1.913691
     33          1           0        1.524114   -2.543558    1.887937
     34          6           0       -0.046683   -5.366238    0.635030
     35          1           0       -0.660111   -5.597953    1.509992
     36          1           0       -0.606655   -5.647117   -0.261186
     37          1           0        0.848751   -5.991159    0.678804
     38          6           0       -5.360351   -2.728215   -1.067792
     39          1           0       -6.374132   -3.134647   -1.132489
     40          1           0       -5.415470   -1.643224   -1.146011
     41          1           0       -4.788099   -3.108300   -1.918807
     42          6           0       -5.556228   -2.682320    1.453634
     43          1           0       -5.656814   -1.597940    1.456262
     44          1           0       -6.555381   -3.125408    1.402799
     45          1           0       -5.095490   -2.988033    2.397197
     46          6           0       -4.694862   -4.702893    0.287551
     47          1           0       -4.128631   -5.120375   -0.549276
     48          1           0       -4.267527   -5.089882    1.216460
     49          1           0       -5.722320   -5.066982    0.212788
     50          1           0        1.487330    3.644658    0.561168
 ---------------------------------------------------------------------

 SCF Done:  E(RB3LYP) =  -1000.81868882     A.U. after    1 cycles

 Alpha  occ. eigenvalues --  -19.15748 -14.38981 -14.33263 -10.27022 -10.25012
 Alpha  occ. eigenvalues --  -10.22907 -10.21712 -10.20282 -10.19673 -10.19523
 Alpha  occ. eigenvalues --  -10.19489 -10.19063 -10.18976 -10.18970 -10.18802
 Alpha  occ. eigenvalues --  -10.18725 -10.18474 -10.18169 -10.16742 -10.16738
 Alpha  occ. eigenvalues --  -10.16642 -10.16433 -10.16027 -10.16023  -1.04760
 Alpha  occ. eigenvalues --   -1.02173  -0.88554  -0.86266  -0.84674  -0.81899
 Alpha  occ. eigenvalues --   -0.80462  -0.76234  -0.74505  -0.72541  -0.71970
 Alpha  occ. eigenvalues --   -0.68300  -0.67857  -0.67613  -0.67349  -0.64191
 Alpha  occ. eigenvalues --   -0.62764  -0.61445  -0.60206  -0.59477  -0.56113
 Alpha  occ. eigenvalues --   -0.54019  -0.52842  -0.51985  -0.50381  -0.47748
 Alpha  occ. eigenvalues --   -0.47123  -0.45994  -0.45494  -0.44824  -0.44322
 Alpha  occ. eigenvalues --   -0.43550  -0.43322  -0.42774  -0.42562  -0.42272
 Alpha  occ. eigenvalues --   -0.41209  -0.41038  -0.41024  -0.38668  -0.37628
 Alpha  occ. eigenvalues --   -0.37575  -0.37052  -0.37032  -0.36550  -0.36195
 Alpha  occ. eigenvalues --   -0.35878  -0.35546  -0.35482  -0.34614  -0.33393
 Alpha  occ. eigenvalues --   -0.33277  -0.32315  -0.31952  -0.31480  -0.31241
 Alpha  occ. eigenvalues --   -0.31180  -0.30382  -0.28217  -0.26540  -0.23282
 Alpha  occ. eigenvalues --   -0.22312  -0.20472
 Alpha virt. eigenvalues --   -0.04363   0.00483   0.01363   0.01971   0.06982
 Alpha virt. eigenvalues --    0.07555   0.09844   0.10304   0.10750   0.13049
 Alpha virt. eigenvalues --    0.13782   0.14197   0.14750   0.14907   0.15431

 Mulliken charges:
               1
     1  C    0.312761
     2  C    0.245739
     3  C   -0.137834
     4  C   -0.123309
     5  C   -0.125944
     6  C   -0.127617
     7  C    0.542353
     8  H    0.112315
     9  H    0.105230
    10  H    0.107318
    11  N   -0.719166
    12  C    0.230768
    13  C    0.088057
    14  C   -0.209666
    15  C    0.132041
    16  C   -0.206001
    17  C    0.105712
    18  H    0.103450
    19  H    0.095474
    20  C   -0.021030
    21  C   -0.005184
    22  O   -0.610085
    23  H    0.352440
    24  N   -0.672465
    25  H    0.312275
    26  C   -0.306562
    27  H    0.103546
    28  H    0.102790
    29  H    0.105012
    30  C   -0.308744
    31  H    0.105298
    32  H    0.103078
    33  H    0.103768
    34  C   -0.320690
    35  H    0.108256
    36  H    0.109013
    37  H    0.101383
    38  C   -0.315674
    39  H    0.098014
    40  H    0.116370
    41  H    0.098208
    42  C   -0.315492
    43  H    0.116495
    44  H    0.097839
    45  H    0.098263
    46  C   -0.320405
    47  H    0.107168
    48  H    0.106755
    49  H    0.100812
    50  H    0.117864
 Sum of Mulliken charges =  -0.00000

 Dipole moment (field-independent basis, Debye):
    X=              5.6438    Y=             -0.4244    Z=              0.4016  Tot=              5.6739
 Quadrupole moment (field-independent basis, Debye-Ang):
   XX=           -154.0129   YY=           -130.7407   ZZ=           -148.4708
   XY=              2.4145   XZ=              2.8538   YZ=             -0.4989

  Exact polarizability: 369.126  21.567 497.957  13.848  -8.263 179.108
 Approx polarizability: 425.112  10.463 520.467  17.120  -9.547 200.435

                      1                      2                      3
                      A                      A                      A
 Frequencies --     42.9006                52.4834                59.0028
 Red. masses --      3.7369                 2.9460                 3.2808
 Frc consts  --      0.0041                 0.0048                 0.0067
 IR Inten    --      0.7783                 0.2239                 0.5201

                      4                      5                      6
                      A                      A                      A
 Frequencies --     73.0638                78.9392               109.5303
 Red. masses --      4.2206                 4.4505                 5.4620
 Frc consts  --      0.0133                 0.0163                 0.0386
 IR Inten    --      2.9174                 2.3948                 0.0128

                      7                      8                      9
                      A                      A                      A
 Frequencies --    127.1519               135.5045               190.8496
 Red. masses --      3.7508                 3.6832                 3.8242
 Frc consts  --      0.0357                 0.0398                 0.0821
 IR Inten    --      0.3400                 2.1111                 0.0228

                     10                     11                     12
                      A                      A                      A
 Frequencies --    212.5180               225.8333               241.0964
 Red. masses --      3.8357                 1.3818                 1.1605
 Frc consts  --      0.1021                 0.0415                 0.0397
 IR Inten    --      0.4344                 0.4125                 0.1461

                     13                     14                     15
                      A                      A                      A
 Frequencies --    246.0716               263.0572               266.5303
 Red. masses --      3.5599                 1.7003                 1.6523
 Frc consts  --      0.1270                 0.0693                 0.0692
 IR Inten    --      0.1604                 0.6091                 0.3983

                     16                     17                     18
                      A                      A                      A
 Frequencies --    268.2953               277.2865               290.1805
 Red. masses --      4.8674                 1.4629                 1.3141
 Frc consts  --      0.2064                 0.0663                 0.0652
 IR Inten    --      3.1212                 0.1227                 0.2653

                     19                     20                     21
                      A                      A                      A
 Frequencies --    309.0970               317.8190               334.2118
 Red. masses --      2.1183                 2.0266                 1.5124
 Frc consts  --      0.1192                 0.1206                 0.0995
 IR Inten    --      1.4676                 0.4132                 0.3938

                     22                     23                     24
                      A                      A                      A
 Frequencies --    338.0403               345.5162               347.8828
 Red. masses --      1.5847                 1.5358                 2.7765
 Frc consts  --      0.1067                 0.1080                 0.1980
 IR Inten    --      0.4405                 0.8068                 0.7871

                     25                     26                     27
                      A                      A                      A
 Frequencies --    369.5190               378.6596               382.2246
 Red. masses --      3.0534                 2.8326                 3.0063
 Frc consts  --      0.2456                 0.2393                 0.2588
 IR Inten    --      2.2770                 0.2417                 7.8280

                     28                     29                     30
                      A                      A                      A
 Frequencies --    408.1195               412.0829               452.5476
 Red. masses --      2.8149                 2.6747                 3.4070
 Frc consts  --      0.2762                 0.2676                 0.4111
 IR Inten    --      0.6029                 2.5623                 8.3873

                     31                     32                     33
                      A                      A                      A
 Frequencies --    467.8638               477.1331               510.3911
 Red. masses --      3.6170                 3.1437                 3.1280
 Frc consts  --      0.4665                 0.4217                 0.4801
 IR Inten    --      0.2303                 2.1081                 5.7987

                     34                     35                     36
                      A                      A                      A
 Frequencies --    520.3990               534.9010               545.6974
 Red. masses --      4.7712                 1.3845                 2.8986
 Frc consts  --      0.7613                 0.2334                 0.5086
 IR Inten    --     13.7931               125.7691                 3.3782

                     37                     38                     39
                      A                      A                      A
 Frequencies --    581.8226               585.2780               599.7735
 Red. masses --      5.8221                 3.3422                 4.0442
 Frc consts  --      1.1612                 0.6745                 0.8571
 IR Inten    --      3.1491                 8.8409                 1.2528

                     40                     41                     42
                      A                      A                      A
 Frequencies --    643.6916               647.2634               658.6265
 Red. masses --      6.6399                 3.2559                 4.6952
 Frc consts  --      1.6209                 0.8037                 1.2000
 IR Inten    --      0.2980                 7.3422                21.0601

                     43                     44                     45
                      A                      A                      A
 Frequencies --    729.3283               738.2926               759.9548
 Red. masses --      3.3758                 5.7165                 4.6628
 Frc consts  --      1.0580                 1.8358                 1.5866
 IR Inten    --     48.0440                12.8074                 1.4788

                     46                     47                     48
                      A                      A                      A
 Frequencies --    762.3204               767.3258               775.5909
 Red. masses --      3.3214                 1.8174                 1.2382
 Frc consts  --      1.1372                 0.6305                 0.4388
 IR Inten    --      2.6750                42.3170               117.8496

                     49                     50                     51
                      A                      A                      A
 Frequencies --    783.9885               824.9281               838.9926
 Red. masses --      3.8301                 3.7582                 3.1810
 Frc consts  --      1.3870                 1.5068                 1.3193
 IR Inten    --     26.3265                14.1307                17.1544

                     52                     53                     54
                      A                      A                      A
 Frequencies --    876.4055               878.4771               888.7296
 Red. masses --      1.5175                 1.4461                 3.7447
 Frc consts  --      0.6867                 0.6575                 1.7426
 IR Inten    --     21.8841                 3.3043                14.8159

                     55                     56                     57
                      A                      A                      A
 Frequencies --    911.5759               921.1639               933.9487
 Red. masses --      1.4875                 6.1656                 2.1401
 Frc consts  --      0.7283                 3.0825                 1.0998
 IR Inten    --      2.7809                19.5644                 2.2137

                     58                     59                     60
                      A                      A                      A
 Frequencies --    935.9250               943.3678               943.8094
 Red. masses --      1.9488                 1.7226                 1.8097
 Frc consts  --      1.0058                 0.9032                 0.9498
 IR Inten    --      7.1816                 4.8179                 4.6159

                     61                     62                     63
                      A                      A                      A
 Frequencies --    951.4964               953.1310               958.0937
 Red. masses --      1.6436                 1.3505                 1.2382
 Frc consts  --      0.8767                 0.7228                 0.6697
 IR Inten    --      3.4402                 3.6298                 0.6393

                     64                     65                     66
                      A                      A                      A
 Frequencies --    971.2915               990.3236              1014.4365
 Red. masses --      1.2271                 1.2453                 4.9134
 Frc consts  --      0.6821                 0.7196                 2.9791
 IR Inten    --      0.5887                 0.0242                 5.4226

                     67                     68                     69
                      A                      A                      A
 Frequencies --   1041.8031              1047.2435              1052.6377
 Red. masses --      1.8703                 1.6529                 1.4012
 Frc consts  --      1.1960                 1.0681                 0.9147
 IR Inten    --     20.0722                 7.5946                 3.4634

                     70                     71                     72
                      A                      A                      A
 Frequencies --   1055.6952              1058.3478              1134.5188
 Red. masses --      1.3903                 1.4031                 2.2148
 Frc consts  --      0.9129                 0.9260                 1.6796
 IR Inten    --      0.5708                 0.3948                10.8742

                     73                     74                     75
                      A                      A                      A
 Frequencies --   1143.3056              1177.2873              1184.4446
 Red. masses --      1.5817                 1.1329                 2.3352
 Frc consts  --      1.2181                 0.9251                 1.9302
 IR Inten    --     13.0207                 0.2430                13.7737

                     76                     77                     78
                      A                      A                      A
 Frequencies --   1226.0910              1230.9031              1235.5665
 Red. masses --      2.4084                 2.7988                 2.7131
 Frc consts  --      2.1331                 2.4985                 2.4404
 IR Inten    --      2.3124                 8.0217                 8.1117

                     79                     80                     81
                      A                      A                      A
 Frequencies --   1241.1306              1249.4433              1262.7104
 Red. masses --      2.7871                 2.4587                 2.9882
 Frc consts  --      2.5295                 2.2615                 2.8072
 IR Inten    --     28.7886                12.9228                15.9907

                     82                     83                     84
                      A                      A                      A
 Frequencies --   1281.6645              1302.0281              1307.9785
 Red. masses --      2.5840                 2.7273                 2.3430
 Frc consts  --      2.5009                 2.7241                 2.3617
 IR Inten    --    154.1154                37.7797               118.6790

                     85                     86                     87
                      A                      A                      A
 Frequencies --   1317.2332              1324.8307              1336.9116
 Red. masses --      2.3800                 2.7252                 3.8710
 Frc consts  --      2.4331                 2.8182                 4.0764
 IR Inten    --     79.8705               114.7981                25.3525

                     88                     89                     90
                      A                      A                      A
 Frequencies --   1364.1803              1391.1908              1395.3095
 Red. masses --      3.0220                 1.2286                 1.2713
 Frc consts  --      3.3135                 1.4010                 1.4583
 IR Inten    --     58.1442                 6.7007                 0.7971

                     91                     92                     93
                      A                      A                      A
 Frequencies --   1406.8571              1409.6042              1411.3033
 Red. masses --      1.5430                 1.2850                 2.1809
 Frc consts  --      1.7993                 1.5043                 2.5594
 IR Inten    --      7.9828                 1.8571                 5.1244

                     94                     95                     96
                      A                      A                      A
 Frequencies --   1419.9005              1433.9183              1435.0108
 Red. masses --      1.5143                 2.4545                 1.2934
 Frc consts  --      1.7988                 2.9734                 1.5692
 IR Inten    --      9.5292                23.4356                 0.3123

                     97                     98                     99
                      A                      A                      A
 Frequencies --   1449.5232              1481.5643              1483.8872
 Red. masses --      2.3648                 1.0507                 1.0738
 Frc consts  --      2.9275                 1.3588                 1.3930
 IR Inten    --     72.9575                 1.7590                19.3414

                    100                    101                    102
                      A                      A                      A
 Frequencies --   1485.8967              1490.8098              1493.3180
 Red. masses --      1.0582                 1.2517                 1.6226
 Frc consts  --      1.3766                 1.6391                 2.1320
 IR Inten    --     10.7899                86.7548                44.2147

                    103                    104                    105
                      A                      A                      A
 Frequencies --   1496.2802              1497.6671              1500.4883
 Red. masses --      1.2283                 1.2168                 1.0864
 Frc consts  --      1.6203                 1.6081                 1.4412
 IR Inten    --     87.8313                29.4645                 1.7721

                    106                    107                    108
                      A                      A                      A
 Frequencies --   1505.0214              1507.1073              1508.6313
 Red. masses --      1.0612                 1.1024                 1.0683
 Frc consts  --      1.4163                 1.4753                 1.4326
 IR Inten    --      7.8172                25.8765                 6.6968

                    109                    110                    111
                      A                      A                      A
 Frequencies --   1514.2417              1520.0814              1525.4230
 Red. masses --      1.6640                 1.0706                 1.0945
 Frc consts  --      2.2480                 1.4574                 1.5006
 IR Inten    --    167.6726                 5.3798                 2.3997

                    112                    113                    114
                      A                      A                      A
 Frequencies --   1532.4232              1547.3821              1577.3348
 Red. masses --      2.9697                 2.2632                 4.0564
 Frc consts  --      4.1088                 3.1928                 5.9462
 IR Inten    --     91.4395                 1.8401               217.3303

                    115                    116                    117
                      A                      A                      A
 Frequencies --   1640.4705              1658.0393              1664.8235
 Red. masses --      5.9344                 3.4062                 4.1725
 Frc consts  --      9.4095                 5.5171                 6.8138
 IR Inten    --     36.5065                21.6343                52.4632

                    118                    119                    120
                      A                      A                      A
 Frequencies --   1684.9868              3045.1183              3048.5149
 Red. masses --      5.1723                 1.0349                 1.0352
 Frc consts  --      8.6522                 5.6541                 5.6685
 IR Inten    --     55.1653                43.9451                46.2409

                    121                    122                    123
                      A                      A                      A
 Frequencies --   3048.7182              3050.3176              3053.9422
 Red. masses --      1.0353                 1.0381                 1.0360
 Frc consts  --      5.6695                 5.6910                 5.6931
 IR Inten    --     24.1452                60.5358                57.3333

                    124                    125                    126
                      A                      A                      A
 Frequencies --   3056.6306              3068.4810              3115.9120
 Red. masses --      1.0397                 1.0716                 1.1022
 Frc consts  --      5.7233                 5.9446                 6.3051
 IR Inten    --    195.5468              1443.4101                 5.7559

                    127                    128                    129
                      A                      A                      A
 Frequencies --   3116.1611              3118.9144              3119.1713
 Red. masses --      1.1027                 1.1020                 1.1018
 Frc consts  --      6.3089                 6.3160                 6.3161
 IR Inten    --     40.3694                61.2920                49.1556

                    130                    131                    132
                      A                      A                      A
 Frequencies --   3121.8361              3122.6712              3127.7340
 Red. masses --      1.1020                 1.1020                 1.1026
 Frc consts  --      6.3279                 6.3314                 6.3549
 IR Inten    --     70.1508               126.1858                64.5139

                    133                    134                    135
                      A                      A                      A
 Frequencies --   3128.2562              3129.8264              3132.8093
 Red. masses --      1.1022                 1.1025                 1.1027
 Frc consts  --      6.3548                 6.3629                 6.3766
 IR Inten    --    102.0148                45.5745                31.7958

                    136                    137                    138
                      A                      A                      A
 Frequencies --   3160.7237              3169.8391              3204.6633
 Red. masses --      1.1005                 1.0980                 1.0864
 Frc consts  --      6.4777                 6.5003                 6.5734
 IR Inten    --     16.0115                17.6576                 3.0195

                    139                    140                    141
                      A                      A                      A
 Frequencies --   3207.8169              3215.1559              3228.4899
 Red. masses --      1.0882                 1.0904                 1.0949
 Frc consts  --      6.5976                 6.6413                 6.7240
 IR Inten    --     23.7771                19.6945                30.3551

                    142                    143                    144
                      A                      A                      A
 Frequencies --   3233.5446              3267.3354              3677.4637
 Red. masses --      1.0951                 1.0873                 1.0813
 Frc consts  --      6.7464                 6.8388                 8.6156
 IR Inten    --     15.8619                 2.0481               133.5192

 - Thermochemistry -
 -------------------
 Temperature   298.150 Kelvin.  Pressure   1.00000 Atm.
 Atom     1 has atomic number  6 and mass  12.00000

 Molecular mass:   322.20451 amu.
 Principal axes and moments of inertia in atomic units:
                           1         2         3
     Eigenvalues --  5152.82991********************
           X            0.16241   0.98446  -0.06672
           Y            0.98665  -0.16120   0.02317
           Z           -0.01206   0.06959   0.99750
 This molecule is an asymmetric top.
 Rotational symmetry number  1.
 Warning -- assumption of classical behavior for rotation
           may cause significant error
 Rotational temperatures (Kelvin)      0.01681     0.00692     0.00513
 Rotational constants (GHZ):           0.35024     0.14423     0.10699
 Zero-point vibrational energy    1130448.6 (Joules/Mol)
                                  270.18371 (Kcal/Mol)
 Warning -- explicit consideration of  39 degrees of freedom as
           vibrations may cause significant error
 Vibrational temperatures:     61.72    75.51    84.89   105.12   113.58
          (Kelvin)            157.59   182.94   194.96   274.59   305.77
                              324.92   346.88   354.04   378.48   383.48
                              386.02   398.95   417.51   444.72   457.27
                              480.86   486.36   497.12   500.53   531.66
                              544.81   549.94   587.19   592.90   651.12
                              673.15   686.49   734.34   748.74   769.60
                              785.14   837.11   842.08   862.94   926.13
                              931.27   947.62  1049.34  1062.24  1093.41
                             1096.81  1104.01  1115.90  1127.98  1186.89
                             1207.12  1260.95  1263.93  1278.68  1311.55
                             1325.35  1343.74  1346.59  1357.30  1357.93
                             1368.99  1371.34  1378.48  1397.47  1424.85
                             1459.55  1498.92  1506.75  1514.51  1518.91
                             1522.73  1632.32  1644.96  1693.85  1704.15
                             1764.07  1771.00  1777.70  1785.71  1797.67
                             1816.76  1844.03  1873.33  1881.89  1895.20
                             1906.14  1923.52  1962.75  2001.61  2007.54
                             2024.15  2028.11  2030.55  2042.92  2063.09
                             2064.66  2085.54  2131.64  2134.98  2137.87
                             2144.94  2148.55  2152.81  2154.81  2158.87
                             2165.39  2168.39  2170.58  2178.66  2187.06
                             2194.74  2204.82  2226.34  2269.43  2360.27
                             2385.55  2395.31  2424.32  4381.25  4386.13
                             4386.43  4388.73  4393.94  4397.81  4414.86
                             4483.10  4483.46  4487.42  4487.79  4491.63
                             4492.83  4500.11  4500.86  4503.12  4507.41
                             4547.58  4560.69  4610.80  4615.33  4625.89
                             4645.08  4652.35  4700.97  5291.05

 Zero-point correction=                           0.430565 (Hartree/Particle)
 Thermal correction to Energy=                    0.452817
 Thermal correction to Enthalpy=                  0.453761
 Thermal correction to Gibbs Free Energy=         0.381314
 Sum of electronic and zero-point Energies=          -1000.388124
 Sum of electronic and thermal Energies=             -1000.365872
 Sum of electronic and thermal Enthalpies=           -1000.364928
 Sum of electronic and thermal Free Energies=        -1000.437375

                     E (Thermal)             CV                S
                      KCal/Mol        Cal/Mol-Kelvin    Cal/Mol-Kelvin
 Total                  284.147             90.982            152.477
 Electronic               0.000              0.000              0.000
 Translational            0.889              2.981             43.206
 Rotational               0.889              2.981             35.341
 Vibrational            282.369             85.020             73.931
 Vibration     1          0.595              1.980              5.120
 Vibration     2          0.596              1.977              4.722
 Vibration     3          0.596              1.974              4.490
 Vibration     4          0.599              1.967              4.069
 Vibration     5          0.600              1.963              3.917
 Vibration     6          0.606              1.942              3.277
 Vibration     7          0.611              1.926              2.989
 Vibration     8          0.613              1.918              2.866
 Vibration     9          0.634              1.853              2.220
 Vibration    10          0.644              1.822              2.022
 Vibration    11          0.650              1.802              1.912
 Vibration    12          0.658              1.777              1.795
 Vibration    13          0.661              1.769              1.759
 Vibration    14          0.670              1.741              1.641
 Vibration    15          0.672              1.735              1.619
 Vibration    16          0.673              1.731              1.607
 Vibration    17          0.678              1.715              1.550
 Vibration    18          0.686              1.692              1.473
 Vibration    19          0.698              1.656              1.367
 Vibration    20          0.704              1.640              1.321
 Vibration    21          0.716              1.607              1.240
 Vibration    22          0.718              1.600              1.221
 Vibration    23          0.724              1.584              1.187
 Vibration    24          0.726              1.580              1.176
 Vibration    25          0.742              1.535              1.082
 Vibration    26          0.749              1.516              1.045
 Vibration    27          0.752              1.508              1.030
 Vibration    28          0.773              1.453              0.933
 Vibration    29          0.776              1.444              0.919
 Vibration    30          0.811              1.355              0.788
 Vibration    31          0.825              1.321              0.744
 Vibration    32          0.834              1.301              0.718
 Vibration    33          0.866              1.227              0.633
 Vibration    34          0.875              1.205              0.609
 Vibration    35          0.890              1.173              0.576
 Vibration    36          0.901              1.149              0.553
 Vibration    37          0.939              1.071              0.482
 Vibration    38          0.942              1.063              0.476
 Vibration    39          0.958              1.032              0.450

 Optimization completed.
    -- Stationary point found.
 Normal termination of Gaussian 16 at Wed Mar  6 12:42:23 2019.
