 Gaussian 16, Revision A.03,
 Gaussian 16:  ES64L-G16RevA.03 25-Dec-2016

 ----------------------------------------------------------------------
 #p opt=tight freq=internalmodes b3lyp/6-31g(d,p) scrf=(cpcm,solvent=di
 chloromethane,read) nosymm empiricaldispersion=gd3bj int=grid=ultrafin
 e
 ----------------------------------------------------------------------

 cyclohexylimine monoBIP neutral, with both protons transferred optimiz
 ation
 ----------------------------------------------------------------------
 Symbolic Z-matrix:
 Charge =  0 Multiplicity = 1

 SCF Done:  E(RB3LYP) =  -1093.06671588     A.U. after   14 cycles
 SCF Done:  E(RB3LYP) =  -1093.07062316     A.U. after   11 cycles
 SCF Done:  E(RB3LYP) =  -1093.07064710     A.U. after   11 cycles
 SCF Done:  E(RB3LYP) =  -1093.07183014     A.U. after   10 cycles
 SCF Done:  E(RB3LYP) =  -1093.07189684     A.U. after   10 cycles
 SCF Done:  E(RB3LYP) =  -1093.07199962     A.U. after   10 cycles
 SCF Done:  E(RB3LYP) =  -1093.07211678     A.U. after    9 cycles
 SCF Done:  E(RB3LYP) =  -1093.07214197     A.U. after    9 cycles
 SCF Done:  E(RB3LYP) =  -1093.07214796     A.U. after    9 cycles
 SCF Done:  E(RB3LYP) =  -1093.07215470     A.U. after    7 cycles
 SCF Done:  E(RB3LYP) =  -1093.07301520     A.U. after    7 cycles
 SCF Done:  E(RB3LYP) =  -1093.07301591     A.U. after    7 cycles
 SCF Done:  E(RB3LYP) =  -1093.07301605     A.U. after    6 cycles
 SCF Done:  E(RB3LYP) =  -1093.07301610     A.U. after    5 cycles
 SCF Done:  E(RB3LYP) =  -1093.07301613     A.U. after    6 cycles
 SCF Done:  E(RB3LYP) =  -1093.07301613     A.U. after    5 cycles
 SCF Done:  E(RB3LYP) =  -1093.07301614     A.U. after    5 cycles
 SCF Done:  E(RB3LYP) =  -1093.07301614     A.U. after    4 cycles
 SCF Done:  E(RB3LYP) =  -1093.07301614     A.U. after    3 cycles
 Optimization completed.
    -- Stationary point found.
 Normal termination of Gaussian 16 at Mon Dec 17 10:39:24 2018.

 ----------------------------------------------------------------------
 #P Geom=AllCheck Guess=TCheck SCRF=Check GenChk RB3LYP/6-31G(d,p) Freq
 ----------------------------------------------------------------------

 ----------------------------------------------------------------------
 cyclohexylimine monoBIP neutral, with both protons transferred optimiz
 ation
 ----------------------------------------------------------------------
 Charge =  0 Multiplicity = 1

                          Input orientation:
 ---------------------------------------------------------------------
 Center     Atomic      Atomic             Coordinates (Angstroms)
 Number     Number       Type             X           Y           Z
 ---------------------------------------------------------------------
      1          6           0       -0.492944    2.696515    0.258104
      2          6           0       -1.903699    2.897651    0.229344
      3          6           0       -2.460260    4.165200    0.164323
      4          6           0       -1.583153    5.268652    0.139148
      5          6           0       -0.204638    5.102645    0.174105
      6          6           0        0.377992    3.813010    0.230746
      7          6           0       -1.392116    0.735543    0.328331
      8          1           0       -3.533460    4.309003    0.135605
      9          1           0       -1.998370    6.268054    0.094230
     10          1           0        0.447264    5.968643    0.160019
     11          7           0       -2.428729    1.626543    0.275094
     12          6           0       -3.008807   -1.140576    0.403032
     13          6           0       -1.640049   -0.674073    0.389610
     14          6           0       -0.558692   -1.585814    0.433704
     15          6           0       -0.762074   -2.949054    0.498642
     16          6           0       -2.103415   -3.412861    0.522312
     17          6           0       -3.194191   -2.569975    0.477146
     18          1           0        0.450286   -1.185019    0.416586
     19          1           0       -2.277255   -4.485524    0.578153
     20          6           0        0.380201   -3.931295    0.536920
     21          1           0        1.342399   -3.414850    0.513231
     22          1           0        0.353989   -4.548767    1.441397
     23          1           0        0.349472   -4.620271   -0.314325
     24          6           0       -4.603942   -3.089824    0.493305
     25          1           0       -5.170419   -2.677940    1.334989
     26          1           0       -5.144326   -2.792423   -0.411706
     27          1           0       -4.621377   -4.179354    0.564901
     28          8           0       -4.029780   -0.355405    0.353265
     29          7           0       -0.190346    1.367819    0.317060
     30          6           0        1.788889    3.649294    0.269088
     31          1           0        2.426166    4.527177    0.258724
     32          7           0        2.366619    2.480134    0.325322
     33          6           0        3.821785    2.261969    0.387532
     34          6           0        4.500086    2.645665   -0.935057
     35          6           0        4.450514    3.007865    1.571323
     36          1           0        3.939319    1.187316    0.544083
     37          6           0        6.006704    2.370797   -0.860632
     38          1           0        4.325880    3.711853   -1.121703
     39          1           0        4.043016    2.089892   -1.757835
     40          6           0        5.955979    2.728199    1.641118
     41          1           0        4.289587    4.084395    1.440940
     42          1           0        3.950890    2.712283    2.497522
     43          6           0        6.653218    3.093824    0.325685
     44          1           0        6.482966    2.668489   -1.799004
     45          1           0        6.165388    1.290675   -0.754197
     46          1           0        6.391970    3.284500    2.475763
     47          1           0        6.113778    1.663452    1.851501
     48          1           0        7.718134    2.849476    0.382662
     49          1           0        6.581473    4.177642    0.170577
     50          1           0       -3.381283    1.210274    0.286880
     51          1           0        1.732069    1.669304    0.330858
 ---------------------------------------------------------------------

 SCF Done:  E(RB3LYP) =  -1093.07301614     A.U. after    1 cycles

 Alpha  occ. eigenvalues --  -19.08291 -14.40395 -14.36496 -14.32443 -10.27646
 Alpha  occ. eigenvalues --  -10.25660 -10.23701 -10.22927 -10.22712 -10.22411
 Alpha  occ. eigenvalues --  -10.21140 -10.20679 -10.20410 -10.19474 -10.18760
 Alpha  occ. eigenvalues --  -10.18726 -10.18101 -10.18079 -10.17772 -10.17314
 Alpha  occ. eigenvalues --  -10.17204 -10.17161 -10.17104 -10.16895 -10.16891
 Alpha  occ. eigenvalues --  -10.16396  -1.01547  -0.98774  -0.96894  -0.87642
 Alpha  occ. eigenvalues --   -0.85866  -0.83532  -0.82994  -0.78362  -0.77184
 Alpha  occ. eigenvalues --   -0.75311  -0.74666  -0.74278  -0.72274  -0.68366
 Alpha  occ. eigenvalues --   -0.67317  -0.65355  -0.63662  -0.62639  -0.61581
 Alpha  occ. eigenvalues --   -0.60841  -0.60140  -0.56772  -0.55461  -0.54954
 Alpha  occ. eigenvalues --   -0.54771  -0.51793  -0.50130  -0.49461  -0.47728
 Alpha  occ. eigenvalues --   -0.46688  -0.45697  -0.45356  -0.45179  -0.44511
 Alpha  occ. eigenvalues --   -0.44152  -0.43877  -0.43095  -0.42066  -0.41904
 Alpha  occ. eigenvalues --   -0.40925  -0.40083  -0.39721  -0.39246  -0.38671
 Alpha  occ. eigenvalues --   -0.38350  -0.37991  -0.37448  -0.37348  -0.37329
 Alpha  occ. eigenvalues --   -0.35961  -0.35359  -0.35067  -0.34679  -0.33523
 Alpha  occ. eigenvalues --   -0.33441  -0.32590  -0.32344  -0.31645  -0.31365
 Alpha  occ. eigenvalues --   -0.29814  -0.29110  -0.28663  -0.25944  -0.23917
 Alpha  occ. eigenvalues --   -0.22363  -0.21373  -0.17077
 Alpha virt. eigenvalues --   -0.08561  -0.01747   0.01510   0.03560   0.04070
 Alpha virt. eigenvalues --    0.08141   0.08214   0.08692   0.10137   0.10930
 Alpha virt. eigenvalues --    0.12147   0.13134   0.13503   0.13734   0.14920

 Mulliken charges:
               1
     1  C    0.231399
     2  C    0.354794
     3  C   -0.106753
     4  C   -0.136227
     5  C   -0.140105
     6  C    0.027365
     7  C    0.489878
     8  H    0.130405
     9  H    0.115314
    10  H    0.119526
    11  N   -0.673531
    12  C    0.303152
    13  C   -0.005744
    14  C   -0.195312
    15  C    0.086846
    16  C   -0.178752
    17  C    0.058289
    18  H    0.084695
    19  H    0.078244
    20  C   -0.387021
    21  H    0.110522
    22  H    0.116781
    23  H    0.117144
    24  C   -0.375523
    25  H    0.113920
    26  H    0.114474
    27  H    0.102659
    28  O   -0.724676
    29  N   -0.720133
    30  C    0.183583
    31  H    0.185255
    32  N   -0.458896
    33  C    0.049045
    34  C   -0.172883
    35  C   -0.179942
    36  H    0.134992
    37  C   -0.187845
    38  H    0.111339
    39  H    0.113004
    40  C   -0.188708
    41  H    0.113332
    42  H    0.114099
    43  C   -0.181705
    44  H    0.103013
    45  H    0.104335
    46  H    0.103048
    47  H    0.104443
    48  H    0.098515
    49  H    0.099069
    50  H    0.306961
    51  H    0.334318
 Sum of Mulliken charges =  -0.00000

 Dipole moment (field-independent basis, Debye):
    X=             14.0231    Y=             10.1082    Z=             -0.1824  Tot=             17.2875
 Quadrupole moment (field-independent basis, Debye-Ang):
   XX=           -144.8589   YY=           -112.1124   ZZ=           -156.2395
   XY=             11.1035   XZ=              5.3986   YZ=              2.4971

  Exact polarizability: 510.115  66.860 632.882   1.119 -18.462 178.305
 Approx polarizability: 561.850  41.180 679.720   2.584 -20.414 201.228

                      1                      2                      3
                      A                      A                      A
 Frequencies --     33.6805                38.6271                56.0650
 Red. masses --      4.4452                 4.4565                 4.1842
 Frc consts  --      0.0030                 0.0039                 0.0077
 IR Inten    --      0.1011                 0.9077                 1.3549

                      4                      5                      6
                      A                      A                      A
 Frequencies --     60.5033                66.0672                90.2093
 Red. masses --      3.3524                 4.4555                 3.4455
 Frc consts  --      0.0072                 0.0115                 0.0165
 IR Inten    --      1.2051                 2.5224                 0.2427

                      7                      8                      9
                      A                      A                      A
 Frequencies --    117.8747               121.7065               133.7027
 Red. masses --      3.3444                 1.8635                 2.2300
 Frc consts  --      0.0274                 0.0163                 0.0235
 IR Inten    --     10.9253                 1.6489                 0.5670

                     10                     11                     12
                      A                      A                      A
 Frequencies --    147.4014               157.9738               194.5372
 Red. masses --      4.1505                 1.0942                 3.2460
 Frc consts  --      0.0531                 0.0161                 0.0724
 IR Inten    --      5.1258                 1.4511                 0.0924

                     13                     14                     15
                      A                      A                      A
 Frequencies --    198.0231               228.6739               231.7394
 Red. masses --      3.3467                 3.1091                 3.6888
 Frc consts  --      0.0773                 0.0958                 0.1167
 IR Inten    --      1.1279                 1.2488                 9.2388

                     16                     17                     18
                      A                      A                      A
 Frequencies --    234.7123               261.4303               268.8525
 Red. masses --      3.9096                 2.2267                 3.1954
 Frc consts  --      0.1269                 0.0897                 0.1361
 IR Inten    --      3.9172                 2.5880                 5.9907

                     19                     20                     21
                      A                      A                      A
 Frequencies --    293.1031               323.8379               339.8655
 Red. masses --      3.5115                 3.7823                 2.2757
 Frc consts  --      0.1777                 0.2337                 0.1549
 IR Inten    --     34.2667                 0.1103                 1.3220

                     22                     23                     24
                      A                      A                      A
 Frequencies --    350.2178               376.6237               383.4650
 Red. masses --      3.8926                 3.6858                 3.8229
 Frc consts  --      0.2813                 0.3080                 0.3312
 IR Inten    --      0.1220                 8.1633                 6.8569

                     25                     26                     27
                      A                      A                      A
 Frequencies --    387.3929               411.8198               446.3790
 Red. masses --      4.0166                 3.4912                 4.2002
 Frc consts  --      0.3552                 0.3488                 0.4931
 IR Inten    --      1.0607                 4.0628                 1.2665

                     28                     29                     30
                      A                      A                      A
 Frequencies --    457.9227               462.2849               501.7764
 Red. masses --      3.1806                 5.9106                 2.3605
 Frc consts  --      0.3930                 0.7442                 0.3502
 IR Inten    --      0.4231                61.8891                 7.1101

                     31                     32                     33
                      A                      A                      A
 Frequencies --    505.8587               524.5223               532.4477
 Red. masses --      4.3981                 3.0956                 4.0295
 Frc consts  --      0.6631                 0.5018                 0.6731
 IR Inten    --      3.6677                 6.2900                 1.1734

                     34                     35                     36
                      A                      A                      A
 Frequencies --    536.9434               556.3588               577.9037
 Red. masses --      3.8365                 3.8160                 2.9828
 Frc consts  --      0.6517                 0.6959                 0.5869
 IR Inten    --     24.4353                20.4917                 1.3318

                     37                     38                     39
                      A                      A                      A
 Frequencies --    599.9812               622.2483               642.1472
 Red. masses --      4.4869                 4.9387                 4.6489
 Frc consts  --      0.9516                 1.1267                 1.1295
 IR Inten    --      2.0704                24.7419                20.3532

                     40                     41                     42
                      A                      A                      A
 Frequencies --    663.4884               732.4603               751.0816
 Red. masses --      4.4677                 5.6125                 4.6179
 Frc consts  --      1.1588                 1.7741                 1.5349
 IR Inten    --     17.4303                 0.0935                12.6736

                     43                     44                     45
                      A                      A                      A
 Frequencies --    761.9570               782.4565               791.1466
 Red. masses --      2.4878                 6.5946                 1.8180
 Frc consts  --      0.8510                 2.3788                 0.6705
 IR Inten    --      9.3078                12.9209               129.6443

                     46                     47                     48
                      A                      A                      A
 Frequencies --    800.4590               803.8360               822.3760
 Red. masses --      3.9477                 2.1345                 1.5000
 Frc consts  --      1.4903                 0.8126                 0.5977
 IR Inten    --      4.5285                 1.6432                 1.1678

                     49                     50                     51
                      A                      A                      A
 Frequencies --    832.9533               842.5424               854.3696
 Red. masses --      1.4293                 2.6604                 1.6340
 Frc consts  --      0.5843                 1.1127                 0.7027
 IR Inten    --     39.8054                32.2928               103.6945

                     52                     53                     54
                      A                      A                      A
 Frequencies --    857.1139               892.9380               898.6358
 Red. masses --      2.3028                 1.3135                 2.0134
 Frc consts  --      0.9967                 0.6170                 0.9579
 IR Inten    --      5.0301                20.5508                 5.0308

                     55                     56                     57
                      A                      A                      A
 Frequencies --    906.3150               912.2842               913.0205
 Red. masses --      3.4168                 1.7229                 1.4592
 Frc consts  --      1.6536                 0.8448                 0.7167
 IR Inten    --      9.2333                18.0216                 8.1211

                     58                     59                     60
                      A                      A                      A
 Frequencies --    922.1568               945.8752               966.7961
 Red. masses --      1.3413                 1.4776                 2.1088
 Frc consts  --      0.6720                 0.7789                 1.1613
 IR Inten    --      1.9308                 0.1883                32.9325

                     61                     62                     63
                      A                      A                      A
 Frequencies --    976.8700               986.0148               994.9374
 Red. masses --      1.2684                 4.6795                 2.6801
 Frc consts  --      0.7131                 2.6805                 1.5631
 IR Inten    --      0.1762                24.6315                 1.4271

                     64                     65                     66
                      A                      A                      A
 Frequencies --   1024.9865              1032.2360              1041.7558
 Red. masses --      1.6186                 2.1997                 1.5387
 Frc consts  --      1.0019                 1.3809                 0.9839
 IR Inten    --    270.0175                48.4956                21.3572

                     67                     68                     69
                      A                      A                      A
 Frequencies --   1046.0947              1061.6237              1063.0559
 Red. masses --      1.4321                 1.4760                 2.4989
 Frc consts  --      0.9233                 0.9801                 1.6639
 IR Inten    --     30.5881                 7.0158               114.3898

                     70                     71                     72
                      A                      A                      A
 Frequencies --   1068.0178              1070.7492              1078.7800
 Red. masses --      1.4694                 1.4747                 2.3973
 Frc consts  --      0.9875                 0.9962                 1.6437
 IR Inten    --      4.8491                 9.1728                59.7279

                     73                     74                     75
                      A                      A                      A
 Frequencies --   1095.1985              1095.9487              1113.6708
 Red. masses --      1.2700                 1.8939                 2.1712
 Frc consts  --      0.8975                 1.3402                 1.5866
 IR Inten    --     13.5254                60.5215                 9.8446

                     76                     77                     78
                      A                      A                      A
 Frequencies --   1143.3080              1169.0564              1176.8870
 Red. masses --      1.9774                 1.6848                 2.1360
 Frc consts  --      1.5229                 1.3566                 1.7431
 IR Inten    --    278.5720               151.5077                51.5591

                     79                     80                     81
                      A                      A                      A
 Frequencies --   1214.6724              1216.7217              1232.9478
 Red. masses --      1.4859                 1.5442                 2.2295
 Frc consts  --      1.2917                 1.3469                 1.9969
 IR Inten    --     17.3607                56.0414               856.2466

                     82                     83                     84
                      A                      A                      A
 Frequencies --   1259.3104              1274.0618              1281.7184
 Red. masses --      1.7081                 2.5410                 1.3380
 Frc consts  --      1.5960                 2.4302                 1.2950
 IR Inten    --    415.2063                11.2409                 0.7877

                     85                     86                     87
                      A                      A                      A
 Frequencies --   1289.3413              1304.1141              1310.3217
 Red. masses --      1.2624                 1.6651                 2.9520
 Frc consts  --      1.2365                 1.6684                 2.9862
 IR Inten    --      5.7061               256.7638               229.6027

                     88                     89                     90
                      A                      A                      A
 Frequencies --   1324.7871              1343.9618              1347.9409
 Red. masses --      2.7738                 1.7032                 1.9937
 Frc consts  --      2.8683                 1.8126                 2.1343
 IR Inten    --    159.4899                 5.6163                 2.0516

                     91                     92                     93
                      A                      A                      A
 Frequencies --   1354.3406              1373.7999              1381.2224
 Red. masses --      1.5828                 1.4069                 2.0761
 Frc consts  --      1.7105                 1.5645                 2.3336
 IR Inten    --     94.3157                 1.9913               163.3836

                     94                     95                     96
                      A                      A                      A
 Frequencies --   1381.8824              1391.3398              1393.3722
 Red. masses --      2.3057                 1.5659                 1.4641
 Frc consts  --      2.5941                 1.7860                 1.6747
 IR Inten    --    197.5198                29.7749                26.4738

                     97                     98                     99
                      A                      A                      A
 Frequencies --   1400.3172              1405.2411              1408.5182
 Red. masses --      1.4556                 2.6245                 1.5057
 Frc consts  --      1.6817                 3.0535                 1.7601
 IR Inten    --     20.0557                49.8762               136.9347

                    100                    101                    102
                      A                      A                      A
 Frequencies --   1410.4569              1426.2520              1451.3785
 Red. masses --      1.9108                 1.4317                 2.0994
 Frc consts  --      2.2396                 1.7159                 2.6056
 IR Inten    --    336.5219                 0.3454                22.4451

                    103                    104                    105
                      A                      A                      A
 Frequencies --   1454.2031              1476.2514              1477.1828
 Red. masses --      2.0642                 1.0468                 2.1582
 Frc consts  --      2.5719                 1.3441                 2.7747
 IR Inten    --     85.8712                 6.3684                13.9948

                    106                    107                    108
                      A                      A                      A
 Frequencies --   1483.8656              1484.9654              1487.8697
 Red. masses --      1.1654                 1.0701                 1.0817
 Frc consts  --      1.5118                 1.3903                 1.4109
 IR Inten    --     24.1154                 4.0511                 3.7076

                    109                    110                    111
                      A                      A                      A
 Frequencies --   1493.4846              1494.8634              1497.3704
 Red. masses --      1.0977                 1.0962                 1.7830
 Frc consts  --      1.4426                 1.4433                 2.3553
 IR Inten    --      2.5269                 5.0382               305.6159

                    112                    113                    114
                      A                      A                      A
 Frequencies --   1502.3491              1510.5733              1518.2857
 Red. masses --      1.6420                 1.0962                 1.8232
 Frc consts  --      2.1835                 1.4738                 2.4762
 IR Inten    --     37.7638                 8.0037               380.2675

                    115                    116                    117
                      A                      A                      A
 Frequencies --   1521.3848              1538.4897              1561.1727
 Red. masses --      1.4766                 3.5056                 7.2283
 Frc consts  --      2.0137                 4.8888                10.3798
 IR Inten    --    240.4845               402.7391              1286.6167

                    118                    119                    120
                      A                      A                      A
 Frequencies --   1581.5178              1625.3800              1669.4524
 Red. masses --      6.2624                 6.1269                 6.5422
 Frc consts  --      9.2287                 9.5368                10.7430
 IR Inten    --     71.0560               224.6233                91.2448

                    121                    122                    123
                      A                      A                      A
 Frequencies --   1682.3966              1701.9623              3035.5873
 Red. masses --      6.1520                 3.2159                 1.0379
 Frc consts  --     10.2595                 5.4884                 5.6349
 IR Inten    --     95.6280               835.4710               105.0012

                    124                    125                    126
                      A                      A                      A
 Frequencies --   3038.9114              3044.0198              3045.4095
 Red. masses --      1.0662                 1.0660                 1.0370
 Frc consts  --      5.8011                 5.8197                 5.6664
 IR Inten    --     40.4901                39.6848                88.4364

                    127                    128                    129
                      A                      A                      A
 Frequencies --   3048.1161              3051.7947              3055.3981
 Red. masses --      1.0653                 1.0633                 1.0614
 Frc consts  --      5.8313                 5.8345                 5.8382
 IR Inten    --     39.3555                33.5536                39.1484

                    130                    131                    132
                      A                      A                      A
 Frequencies --   3085.5770              3091.0224              3096.9390
 Red. masses --      1.1010                 1.0974                 1.0997
 Frc consts  --      6.1763                 6.1774                 6.2143
 IR Inten    --     45.4146                94.7225                41.1590

                    133                    134                    135
                      A                      A                      A
 Frequencies --   3098.1052              3102.1348              3105.5629
 Red. masses --      1.1006                 1.0914                 1.0963
 Frc consts  --      6.2243                 6.1882                 6.2297
 IR Inten    --     94.0646                22.3689                60.6325

                    136                    137                    138
                      A                      A                      A
 Frequencies --   3112.8066              3118.5876              3126.8974
 Red. masses --      1.0994                 1.0992                 1.1002
 Frc consts  --      6.2763                 6.2987                 6.3381
 IR Inten    --     41.7965               100.2888                33.8388

                    139                    140                    141
                      A                      A                      A
 Frequencies --   3135.0846              3138.6419              3164.2835
 Red. masses --      1.1018                 1.0915                 1.0888
 Frc consts  --      6.3807                 6.3350                 6.4229
 IR Inten    --     93.8107               580.9569                62.4885

                    142                    143                    144
                      A                      A                      A
 Frequencies --   3188.7209              3209.6659              3216.6138
 Red. masses --      1.0898                 1.0890                 1.0930
 Frc consts  --      6.5289                 6.6098                 6.6629
 IR Inten    --     18.1615                 5.3569                11.3334

                    145                    146                    147
                      A                      A                      A
 Frequencies --   3226.7912              3235.4797              3300.0088
 Red. masses --      1.0901                 1.0954                 1.0822
 Frc consts  --      6.6873                 6.7564                 6.9433
 IR Inten    --     20.9220                22.6357               159.3439

 - Thermochemistry -
 -------------------
 Temperature   298.150 Kelvin.  Pressure   1.00000 Atm.
 Atom     1 has atomic number  6 and mass  12.00000

 Molecular mass:   347.19976 amu.
 Principal axes and moments of inertia in atomic units:
                           1         2         3
     Eigenvalues --  6417.81480********************
           X            0.83020  -0.55733  -0.01233
           Y            0.55735   0.82937   0.03872
           Z           -0.01135  -0.03902   0.99917
 This molecule is an asymmetric top.
 Rotational symmetry number  1.
 Warning -- assumption of classical behavior for rotation
           may cause significant error
 Rotational temperatures (Kelvin)      0.01350     0.00514     0.00385
 Rotational constants (GHZ):           0.28121     0.10708     0.08013
 Zero-point vibrational energy    1138734.5 (Joules/Mol)
                                  272.16407 (Kcal/Mol)
 Warning -- explicit consideration of  37 degrees of freedom as
           vibrations may cause significant error
 Vibrational temperatures:     48.46    55.58    80.66    87.05    95.06
          (Kelvin)            129.79   169.60   175.11   192.37   212.08
                              227.29   279.90   284.91   329.01   333.42
                              337.70   376.14   386.82   421.71   465.93
                              488.99   503.89   541.88   551.72   557.37
                              592.52   642.24   658.85   665.12   721.94
                              727.82   754.67   766.07   772.54   800.48
                              831.47   863.24   895.28   923.91   954.61
                             1053.85  1080.64  1096.29  1125.78  1138.28
                             1151.68  1156.54  1183.22  1198.43  1212.23
                             1229.25  1233.20  1284.74  1292.94  1303.99
                             1312.57  1313.63  1326.78  1360.90  1391.00
                             1405.50  1418.66  1431.49  1474.73  1485.16
                             1498.85  1505.10  1527.44  1529.50  1536.64
                             1540.57  1552.12  1575.75  1576.83  1602.32
                             1644.97  1682.01  1693.28  1747.64  1750.59
                             1773.94  1811.87  1833.09  1844.11  1855.07
                             1876.33  1885.26  1906.07  1933.66  1939.39
                             1948.59  1976.59  1987.27  1988.22  2001.83
                             2004.75  2014.74  2021.83  2026.54  2029.33
                             2052.06  2088.21  2092.27  2124.00  2125.34
                             2134.95  2136.53  2140.71  2148.79  2150.77
                             2154.38  2161.55  2173.38  2184.47  2188.93
                             2213.54  2246.18  2275.45  2338.56  2401.97
                             2420.59  2448.74  4367.53  4372.32  4379.67
                             4381.67  4385.56  4390.85  4396.04  4439.46
                             4447.29  4455.80  4457.48  4463.28  4468.21
                             4478.63  4486.95  4498.91  4510.69  4515.81
                             4552.70  4587.86  4617.99  4627.99  4642.63
                             4655.13  4747.98

 Zero-point correction=                           0.433721 (Hartree/Particle)
 Thermal correction to Energy=                    0.456195
 Thermal correction to Enthalpy=                  0.457140
 Thermal correction to Gibbs Free Energy=         0.382174
 Sum of electronic and zero-point Energies=          -1092.639295
 Sum of electronic and thermal Energies=             -1092.616821
 Sum of electronic and thermal Enthalpies=           -1092.615876
 Sum of electronic and thermal Free Energies=        -1092.690842

                     E (Thermal)             CV                S
                      KCal/Mol        Cal/Mol-Kelvin    Cal/Mol-Kelvin
 Total                  286.267             90.223            157.778
 Electronic               0.000              0.000              0.000
 Translational            0.889              2.981             43.428
 Rotational               0.889              2.981             36.142
 Vibrational            284.490             84.261             78.207
 Vibration     1          0.594              1.983              5.600
 Vibration     2          0.594              1.981              5.328
 Vibration     3          0.596              1.975              4.591
 Vibration     4          0.597              1.973              4.441
 Vibration     5          0.597              1.970              4.267
 Vibration     6          0.602              1.956              3.656
 Vibration     7          0.608              1.934              3.135
 Vibration     8          0.609              1.931              3.073
 Vibration     9          0.613              1.920              2.892
 Vibration    10          0.617              1.905              2.706
 Vibration    11          0.621              1.894              2.574
 Vibration    12          0.635              1.847              2.184
 Vibration    13          0.637              1.843              2.151
 Vibration    14          0.651              1.797              1.889
 Vibration    15          0.653              1.792              1.865
 Vibration    16          0.655              1.788              1.843
 Vibration    17          0.669              1.743              1.652
 Vibration    18          0.673              1.730              1.604
 Vibration    19          0.688              1.687              1.456
 Vibration    20          0.708              1.628              1.291
 Vibration    21          0.720              1.596              1.213
 Vibration    22          0.727              1.575              1.165
 Vibration    23          0.747              1.520              1.053
 Vibration    24          0.753              1.505              1.025
 Vibration    25          0.756              1.497              1.010
 Vibration    26          0.776              1.445              0.920
 Vibration    27          0.806              1.369              0.807
 Vibration    28          0.816              1.343              0.772
 Vibration    29          0.820              1.334              0.759
 Vibration    30          0.857              1.246              0.654
 Vibration    31          0.861              1.237              0.644
 Vibration    32          0.879              1.196              0.600
 Vibration    33          0.887              1.178              0.582
 Vibration    34          0.892              1.168              0.572
 Vibration    35          0.912              1.126              0.531
 Vibration    36          0.934              1.079              0.489
 Vibration    37          0.958              1.032              0.450

 Optimization completed.
    -- Stationary point found.
 Normal termination of Gaussian 16 at Mon Dec 17 10:52:53 2018.
