 Gaussian 16, Revision B.01,
 Gaussian 16:  ES64L-G16RevB.01 20-Dec-2017

 ----------------------------------------------------------------------
 #p opt=tight freq=internalmodes b3lyp/6-31g(d,p) scrf=(cpcm,solvent=di
 chloromethane,read) nosymm empiricaldispersion=gd3bj int=grid=ultrafin
 e
 ----------------------------------------------------------------------

 --------------------------------------
 Simple unsub-monoBIP E1PT optimization
 --------------------------------------
 Symbolic Z-matrix:
 Charge =  1 Multiplicity = 2

 SCF Done:  E(UB3LYP) =  -1000.61760011     A.U. after   18 cycles
 SCF Done:  E(UB3LYP) =  -1000.63444844     A.U. after   14 cycles
 SCF Done:  E(UB3LYP) =  -1000.63481309     A.U. after   13 cycles
 SCF Done:  E(UB3LYP) =  -1000.63566866     A.U. after   13 cycles
 SCF Done:  E(UB3LYP) =  -1000.63561855     A.U. after   12 cycles
 SCF Done:  E(UB3LYP) =  -1000.63573462     A.U. after   12 cycles
 SCF Done:  E(UB3LYP) =  -1000.63575096     A.U. after   11 cycles
 SCF Done:  E(UB3LYP) =  -1000.63575801     A.U. after    9 cycles
 SCF Done:  E(UB3LYP) =  -1000.63576168     A.U. after    8 cycles
 SCF Done:  E(UB3LYP) =  -1000.63576237     A.U. after    7 cycles
 SCF Done:  E(UB3LYP) =  -1000.63576245     A.U. after    6 cycles
 SCF Done:  E(UB3LYP) =  -1000.63576248     A.U. after    6 cycles
 SCF Done:  E(UB3LYP) =  -1000.63576249     A.U. after    5 cycles
 SCF Done:  E(UB3LYP) =  -1000.63576249     A.U. after    5 cycles
 SCF Done:  E(UB3LYP) =  -1000.63576249     A.U. after    4 cycles
 SCF Done:  E(UB3LYP) =  -1000.63576249     A.U. after    4 cycles
 Optimization completed.
    -- Stationary point found.
 Normal termination of Gaussian 16 at Wed Mar  6 12:42:45 2019.

 ----------------------------------------------------------------------
 #P Geom=AllCheck Guess=TCheck SCRF=Check GenChk UB3LYP/6-31G(d,p) Freq
 ----------------------------------------------------------------------

 Structure from the checkpoint file:  "unsub-monoBIP-E1PT.chk"
 --------------------------------------
 Simple unsub-monoBIP E1PT optimization
 --------------------------------------
 Charge =  1 Multiplicity = 2

                          Input orientation:
 ---------------------------------------------------------------------
 Center     Atomic      Atomic             Coordinates (Angstroms)
 Number     Number       Type             X           Y           Z
 ---------------------------------------------------------------------
      1          6           0       -0.466074    2.739723    0.447772
      2          6           0       -1.854058    2.951118    0.319903
      3          6           0       -2.391934    4.233376    0.207908
      4          6           0       -1.486274    5.287507    0.227501
      5          6           0       -0.097537    5.074589    0.356415
      6          6           0        0.441142    3.798102    0.470540
      7          6           0       -1.489418    0.745897    0.439084
      8          1           0       -3.457367    4.390739    0.106028
      9          1           0       -1.856717    6.301763    0.142565
     10          1           0        0.566486    5.930269    0.367596
     11          7           0       -2.434650    1.695174    0.321927
     12          6           0       -3.103708   -1.179348    0.349603
     13          6           0       -1.723529   -0.680580    0.453203
     14          6           0       -0.666042   -1.561581    0.538014
     15          6           0       -0.868526   -2.958206    0.534195
     16          6           0       -2.188675   -3.446638    0.445185
     17          6           0       -3.302983   -2.633758    0.356297
     18          1           0        0.349360   -1.191372    0.603130
     19          1           0       -2.330652   -4.515531    0.445347
     20          6           0        0.343791   -3.876337    0.600690
     21          6           0       -4.713453   -3.208995    0.264086
     22          8           0       -4.064571   -0.375411    0.253487
     23          7           0       -0.291768    1.366395    0.521904
     24          1           0        0.595822    0.891890    0.609864
     25          6           0        1.226697   -3.601069   -0.638167
     26          1           0        1.551270   -2.558835   -0.674797
     27          1           0        2.117380   -4.233133   -0.597240
     28          1           0        0.685984   -3.827008   -1.560316
     29          6           0        1.152204   -3.560219    1.878360
     30          1           0        0.556678   -3.747504    2.774723
     31          1           0        2.035294   -4.202976    1.912131
     32          1           0        1.491157   -2.522096    1.899602
     33          6           0       -0.042479   -5.360738    0.615579
     34          1           0       -0.649384   -5.611748    1.489266
     35          1           0       -0.593772   -5.643320   -0.284788
     36          1           0        0.865794   -5.965453    0.654552
     37          6           0       -5.364450   -2.780987   -1.071188
     38          1           0       -6.367107   -3.212023   -1.134012
     39          1           0       -5.445635   -1.697917   -1.147513
     40          1           0       -4.782326   -3.150539   -1.919403
     41          6           0       -5.560336   -2.696954    1.452165
     42          1           0       -5.663498   -1.613622    1.424783
     43          1           0       -6.555431   -3.147082    1.405798
     44          1           0       -5.100567   -2.981869    2.402035
     45          6           0       -4.702021   -4.745308    0.314682
     46          1           0       -4.140924   -5.175143   -0.519130
     47          1           0       -4.271843   -5.116172    1.248558
     48          1           0       -5.729839   -5.107860    0.249878
     49          1           0        1.505306    3.630573    0.571254
     50          1           0       -3.413478    1.421064    0.249207
 ---------------------------------------------------------------------

 SCF Done:  E(UB3LYP) =  -1000.63576249     A.U. after    1 cycles

 Alpha  occ. eigenvalues --  -19.17577 -14.43974 -14.43209 -10.33127 -10.29900
 Alpha  occ. eigenvalues --  -10.26964 -10.26790 -10.25395 -10.24462 -10.23654
 Alpha  occ. eigenvalues --  -10.23647 -10.22389 -10.22343 -10.22227 -10.21766
 Alpha  occ. eigenvalues --  -10.21736 -10.21685 -10.21674 -10.18733 -10.18701
 Alpha  occ. eigenvalues --  -10.18291 -10.17957 -10.17821 -10.17779  -1.09049
 Alpha  occ. eigenvalues --   -1.06550  -0.95776  -0.90250  -0.88509  -0.84584
 Alpha  occ. eigenvalues --   -0.83880  -0.79835  -0.78062  -0.76618  -0.74645
 Alpha  occ. eigenvalues --   -0.70524  -0.69831  -0.69807  -0.69389  -0.69088
 Alpha  occ. eigenvalues --   -0.67557  -0.66251  -0.63535  -0.62627  -0.59613
 Alpha  occ. eigenvalues --   -0.56935  -0.55764  -0.54780  -0.53931  -0.51831
 Alpha  occ. eigenvalues --   -0.51266  -0.50861  -0.50348  -0.47811  -0.47285
 Alpha  occ. eigenvalues --   -0.46776  -0.46642  -0.46256  -0.46011  -0.44890
 Alpha  occ. eigenvalues --   -0.44629  -0.44293  -0.43218  -0.42635  -0.40977
 Alpha  occ. eigenvalues --   -0.40411  -0.39469  -0.39335  -0.38888  -0.38430
 Alpha  occ. eigenvalues --   -0.38219  -0.38078  -0.37698  -0.37287  -0.37042
 Alpha  occ. eigenvalues --   -0.36377  -0.36325  -0.34889  -0.34393  -0.34111
 Alpha  occ. eigenvalues --   -0.33914  -0.32916  -0.30660  -0.28707  -0.26980
 Alpha  occ. eigenvalues --   -0.26394  -0.23790
 Alpha virt. eigenvalues --   -0.08577  -0.03411  -0.02320  -0.01533   0.02079
 Alpha virt. eigenvalues --    0.05164   0.08215   0.08557   0.08834   0.10857
 Alpha virt. eigenvalues --    0.11798   0.11947   0.12067   0.12694   0.13100

  Beta  occ. eigenvalues --  -19.16778 -14.43915 -14.43153 -10.33181 -10.29921
  Beta  occ. eigenvalues --  -10.26946 -10.26774 -10.25141 -10.23980 -10.23713
  Beta  occ. eigenvalues --  -10.23271 -10.22391 -10.22344 -10.22245 -10.21855
  Beta  occ. eigenvalues --  -10.21752 -10.21749 -10.21669 -10.18692 -10.18664
  Beta  occ. eigenvalues --  -10.18291 -10.17958 -10.17795 -10.17753  -1.08923
  Beta  occ. eigenvalues --   -1.05157  -0.95654  -0.89740  -0.88316  -0.84258
  Beta  occ. eigenvalues --   -0.83587  -0.79712  -0.78035  -0.76520  -0.73844
  Beta  occ. eigenvalues --   -0.70384  -0.69757  -0.69710  -0.69356  -0.69000
  Beta  occ. eigenvalues --   -0.67496  -0.66141  -0.63289  -0.62383  -0.59510
  Beta  occ. eigenvalues --   -0.56848  -0.55701  -0.54688  -0.53792  -0.51609
  Beta  occ. eigenvalues --   -0.51057  -0.50588  -0.50182  -0.47607  -0.47222
  Beta  occ. eigenvalues --   -0.46763  -0.46390  -0.46201  -0.45257  -0.44549
  Beta  occ. eigenvalues --   -0.44451  -0.43170  -0.43065  -0.42440  -0.40433
  Beta  occ. eigenvalues --   -0.40256  -0.39454  -0.39129  -0.38849  -0.38210
  Beta  occ. eigenvalues --   -0.38059  -0.37841  -0.37671  -0.36992  -0.36871
  Beta  occ. eigenvalues --   -0.36067  -0.35196  -0.34717  -0.34039  -0.34017
  Beta  occ. eigenvalues --   -0.32913  -0.32777  -0.29961  -0.28032  -0.26857
  Beta  occ. eigenvalues --   -0.25804
  Beta virt. eigenvalues --   -0.16700  -0.07917  -0.02216  -0.01371  -0.00705
  Beta virt. eigenvalues --    0.02983   0.05174   0.08226   0.08576   0.08873
  Beta virt. eigenvalues --    0.10973   0.11968   0.12095   0.12678   0.12841

 Mulliken charges and spin densities:
               1          2
     1  C    0.316102   0.012275
     2  C    0.327247   0.012047
     3  C   -0.101344  -0.001939
     4  C   -0.109406   0.011688
     5  C   -0.108154   0.012409
     6  C   -0.103401  -0.002396
     7  C    0.605472  -0.040395
     8  H    0.144311  -0.000047
     9  H    0.130698  -0.000576
    10  H    0.130908  -0.000606
    11  N   -0.641395   0.027352
    12  C    0.369031  -0.013849
    13  C    0.092305   0.193071
    14  C   -0.159084  -0.057168
    15  C    0.158212   0.357996
    16  C   -0.165854  -0.160912
    17  C    0.119764   0.293813
    18  H    0.141910   0.001426
    19  H    0.126826   0.004846
    20  C   -0.041012  -0.022190
    21  C   -0.018799  -0.018549
    22  O   -0.558505   0.307999
    23  N   -0.656931   0.026913
    24  H    0.342319  -0.000967
    25  C   -0.310704   0.013796
    26  H    0.112885  -0.000419
    27  H    0.121892   0.005361
    28  H    0.118286  -0.000115
    29  C   -0.312075   0.012629
    30  H    0.118317  -0.000028
    31  H    0.121648   0.004563
    32  H    0.112622  -0.000422
    33  C   -0.325293   0.000471
    34  H    0.118677   0.000258
    35  H    0.118931   0.000212
    36  H    0.115010  -0.000400
    37  C   -0.315618   0.012132
    38  H    0.112752   0.001467
    39  H    0.120239  -0.001132
    40  H    0.108267  -0.000274
    41  C   -0.316645   0.012063
    42  H    0.121243  -0.001163
    43  H    0.112094   0.001270
    44  H    0.108012  -0.000261
    45  C   -0.325049   0.000058
    46  H    0.115231   0.000283
    47  H    0.114782   0.000280
    48  H    0.112741  -0.000290
    49  H    0.143014  -0.000028
    50  H    0.337522  -0.002551
 Sum of Mulliken charges =   1.00000   1.00000

 Dipole moment (field-independent basis, Debye):
    X=             -2.9109    Y=              0.5461    Z=              2.2831  Tot=              3.7395
 Quadrupole moment (field-independent basis, Debye-Ang):
   XX=           -120.3286   YY=            -82.2518   ZZ=           -142.3401
   XY=              1.1685   XZ=              0.3973   YZ=             -1.1676

  Exact polarizability: 386.666  19.348 580.204  15.020  -9.938 177.198
 Approx polarizability: 441.963  -6.802 578.638  18.601 -11.955 198.958

                      1                      2                      3
                      A                      A                      A
 Frequencies --     36.1002                51.3696                54.6635
 Red. masses --      3.3567                 4.0140                 2.8133
 Frc consts  --      0.0026                 0.0062                 0.0050
 IR Inten    --      0.5339                 0.3186                 0.1067

                      4                      5                      6
                      A                      A                      A
 Frequencies --     65.5949                76.7019               101.7219
 Red. masses --      4.0280                 4.5192                 5.5872
 Frc consts  --      0.0102                 0.0157                 0.0341
 IR Inten    --      0.2032                 0.5166                 3.6940

                      7                      8                      9
                      A                      A                      A
 Frequencies --    118.4523               136.1348               175.5164
 Red. masses --      3.8550                 3.7342                 3.7705
 Frc consts  --      0.0319                 0.0408                 0.0684
 IR Inten    --      0.0923                 0.3470                 0.9479

                     10                     11                     12
                      A                      A                      A
 Frequencies --    208.6979               214.2855               240.7123
 Red. masses --      3.8385                 1.4646                 3.1973
 Frc consts  --      0.0985                 0.0396                 0.1092
 IR Inten    --      2.7529                 1.6526                 3.5180

                     13                     14                     15
                      A                      A                      A
 Frequencies --    246.5078               261.8235               265.5596
 Red. masses --      1.4418                 2.4859                 1.5497
 Frc consts  --      0.0516                 0.1004                 0.0644
 IR Inten    --      0.5090                 0.6190                 0.6559

                     16                     17                     18
                      A                      A                      A
 Frequencies --    266.0136               273.5680               293.7540
 Red. masses --      2.0467                 1.8855                 1.7880
 Frc consts  --      0.0853                 0.0831                 0.0909
 IR Inten    --      0.8207                 2.0658                 1.1663

                     19                     20                     21
                      A                      A                      A
 Frequencies --    305.9162               313.6512               329.6282
 Red. masses --      1.9464                 1.4386                 1.4433
 Frc consts  --      0.1073                 0.0834                 0.0924
 IR Inten    --      0.3033                 0.1392                 0.1507

                     22                     23                     24
                      A                      A                      A
 Frequencies --    337.8344               343.6080               349.0609
 Red. masses --      1.5958                 2.1986                 1.6874
 Frc consts  --      0.1073                 0.1529                 0.1211
 IR Inten    --      1.9008                 1.8835                 1.0296

                     25                     26                     27
                      A                      A                      A
 Frequencies --    364.0523               377.0851               385.2822
 Red. masses --      2.9011                 2.7717                 3.0951
 Frc consts  --      0.2265                 0.2322                 0.2707
 IR Inten    --      5.6403                 3.0987                 7.8615

                     28                     29                     30
                      A                      A                      A
 Frequencies --    396.4027               412.4321               429.1847
 Red. masses --      2.6077                 2.9842                 3.6847
 Frc consts  --      0.2414                 0.2991                 0.3999
 IR Inten    --      0.3241                 4.5393                 3.1252

                     31                     32                     33
                      A                      A                      A
 Frequencies --    463.4973               477.5997               493.1185
 Red. masses --      3.3741                 3.4639                 3.9466
 Frc consts  --      0.4271                 0.4655                 0.5654
 IR Inten    --      4.4352                10.1986                13.0137

                     34                     35                     36
                      A                      A                      A
 Frequencies --    507.0302               540.0351               559.6536
 Red. masses --      2.9230                 2.9248                 4.8110
 Frc consts  --      0.4427                 0.5026                 0.8878
 IR Inten    --      5.5244                 0.3689                 3.4660

                     37                     38                     39
                      A                      A                      A
 Frequencies --    576.9843               585.1923               617.0988
 Red. masses --      5.9411                 3.6576                 1.2125
 Frc consts  --      1.1653                 0.7380                 0.2721
 IR Inten    --     41.8945                 0.6540                65.7683

                     40                     41                     42
                      A                      A                      A
 Frequencies --    637.4786               655.8200               675.1990
 Red. masses --      6.5592                 3.3663                 5.3274
 Frc consts  --      1.5705                 0.8530                 1.4310
 IR Inten    --      2.9181                10.1341                19.6952

                     43                     44                     45
                      A                      A                      A
 Frequencies --    725.0291               738.3369               748.6549
 Red. masses --      5.1401                 6.5292                 5.0298
 Frc consts  --      1.5920                 2.0971                 1.6610
 IR Inten    --     13.5859                 7.3752                 5.5231

                     46                     47                     48
                      A                      A                      A
 Frequencies --    760.3320               773.8454               775.3430
 Red. masses --      1.2158                 1.3143                 3.7083
 Frc consts  --      0.4141                 0.4637                 1.3135
 IR Inten    --     91.3570               161.2820                 2.4953

                     49                     50                     51
                      A                      A                      A
 Frequencies --    803.3929               820.4864               837.5893
 Red. masses --      7.3004                 3.8669                 3.3478
 Frc consts  --      2.7762                 1.5337                 1.3838
 IR Inten    --     34.4917                 2.8773                21.1017

                     52                     53                     54
                      A                      A                      A
 Frequencies --    869.4882               883.8127               910.4875
 Red. masses --      3.3957                 1.3895                 2.2719
 Frc consts  --      1.5125                 0.6395                 1.1096
 IR Inten    --      6.0360                 0.0446                20.4679

                     55                     56                     57
                      A                      A                      A
 Frequencies --    910.8629               919.1363               923.7560
 Red. masses --      2.4533                 1.5804                 2.6504
 Frc consts  --      1.1993                 0.7866                 1.3325
 IR Inten    --     16.8075                12.5675                31.8177

                     58                     59                     60
                      A                      A                      A
 Frequencies --    938.9917               944.2899               946.0614
 Red. masses --      1.6797                 1.7530                 1.6827
 Frc consts  --      0.8726                 0.9210                 0.8874
 IR Inten    --      3.0508                 2.8408                 7.4065

                     61                     62                     63
                      A                      A                      A
 Frequencies --    959.8658               961.3557               968.8096
 Red. masses --      1.6424                 1.2235                 1.3434
 Frc consts  --      0.8916                 0.6662                 0.7429
 IR Inten    --      3.1313                 0.2761                 2.9606

                     64                     65                     66
                      A                      A                      A
 Frequencies --    983.3961              1006.9834              1008.4713
 Red. masses --      1.2096                 1.2925                 4.3179
 Frc consts  --      0.6892                 0.7722                 2.5873
 IR Inten    --      1.6677                 0.1370                15.1605

                     67                     68                     69
                      A                      A                      A
 Frequencies --   1039.9520              1048.9034              1051.7314
 Red. masses --      2.0023                 1.5358                 1.4228
 Frc consts  --      1.2759                 0.9955                 0.9273
 IR Inten    --     10.8609                 4.9703                 3.5953

                     70                     71                     72
                      A                      A                      A
 Frequencies --   1052.8586              1056.8045              1129.0942
 Red. masses --      1.3972                 1.4123                 2.4679
 Frc consts  --      0.9125                 0.9293                 1.8537
 IR Inten    --      0.1552                13.5371                46.2610

                     73                     74                     75
                      A                      A                      A
 Frequencies --   1144.5447              1157.4453              1179.3834
 Red. masses --      1.5041                 1.9987                 1.2006
 Frc consts  --      1.1609                 1.5776                 0.9839
 IR Inten    --     28.1830               207.3972                22.0933

                     76                     77                     78
                      A                      A                      A
 Frequencies --   1198.3623              1220.1852              1223.5696
 Red. masses --      1.9467                 2.6967                 2.6107
 Frc consts  --      1.6471                 2.3656                 2.3028
 IR Inten    --     23.1560                 6.4318                 0.9933

                     79                     80                     81
                      A                      A                      A
 Frequencies --   1231.8300              1240.0665              1244.2839
 Red. masses --      2.3873                 2.6311                 2.4785
 Frc consts  --      2.1343                 2.3839                 2.2609
 IR Inten    --      0.3893                18.0060                18.1966

                     82                     83                     84
                      A                      A                      A
 Frequencies --   1271.7521              1287.6492              1302.4604
 Red. masses --      2.5825                 2.2348                 1.8292
 Frc consts  --      2.4609                 2.1832                 1.8282
 IR Inten    --     21.4690                50.7379                25.9572

                     85                     86                     87
                      A                      A                      A
 Frequencies --   1312.9139              1338.8882              1347.2806
 Red. masses --      3.1725                 3.0428                 4.3936
 Frc consts  --      3.2220                 3.2138                 4.6988
 IR Inten    --     42.5088                67.3196                16.4719

                     88                     89                     90
                      A                      A                      A
 Frequencies --   1388.5232              1392.0925              1394.0837
 Red. masses --      1.2156                 1.9829                 1.2516
 Frc consts  --      1.3808                 2.2641                 1.4331
 IR Inten    --      6.9913                16.6444                15.5561

                     91                     92                     93
                      A                      A                      A
 Frequencies --   1409.4799              1415.7046              1418.0481
 Red. masses --      1.5615                 1.2404                 1.4055
 Frc consts  --      1.8277                 1.4648                 1.6651
 IR Inten    --     14.0906                 3.8210                 0.3437

                     94                     95                     96
                      A                      A                      A
 Frequencies --   1424.2654              1424.5553              1442.3018
 Red. masses --      1.4292                 2.8346                 1.2255
 Frc consts  --      1.7082                 3.3893                 1.5021
 IR Inten    --      3.7350                75.5707                 1.9904

                     97                     98                     99
                      A                      A                      A
 Frequencies --   1460.5959              1480.1772              1483.9091
 Red. masses --      4.7069                 1.0537                 1.4395
 Frc consts  --      5.9163                 1.3601                 1.8676
 IR Inten    --     30.1334                 1.5553                33.8794

                    100                    101                    102
                      A                      A                      A
 Frequencies --   1484.9786              1490.0805              1491.8184
 Red. masses --      1.0846                 1.1143                 1.0994
 Frc consts  --      1.4092                 1.4578                 1.4416
 IR Inten    --      7.4212                 8.8900                10.8661

                    103                    104                    105
                      A                      A                      A
 Frequencies --   1494.1858              1495.5312              1501.1798
 Red. masses --      2.3375                 1.1530                 1.2558
 Frc consts  --      3.0747                 1.5194                 1.6673
 IR Inten    --     13.7065                 1.6948                17.6315

                    106                    107                    108
                      A                      A                      A
 Frequencies --   1504.9186              1507.1941              1509.5099
 Red. masses --      1.2703                 1.0698                 1.0594
 Frc consts  --      1.6951                 1.4318                 1.4222
 IR Inten    --     49.3030                12.0292                 7.6318

                    109                    110                    111
                      A                      A                      A
 Frequencies --   1511.7614              1519.9960              1522.5695
 Red. masses --      1.5005                 1.4958                 1.1611
 Frc consts  --      2.0205                 2.0362                 1.5859
 IR Inten    --     34.8083                11.2797                38.4556

                    112                    113                    114
                      A                      A                      A
 Frequencies --   1528.4297              1554.2303              1557.7058
 Red. masses --      1.0916                 3.6030                 4.8623
 Frc consts  --      1.5025                 5.1280                 6.9512
 IR Inten    --     37.9532                31.5188               192.2312

                    115                    116                    117
                      A                      A                      A
 Frequencies --   1600.6448              1638.3066              1667.9408
 Red. masses --      4.7010                 4.5951                 5.5124
 Frc consts  --      7.0963                 7.2666                 9.0355
 IR Inten    --    210.0491               115.3571               153.7143

                    118                    119                    120
                      A                      A                      A
 Frequencies --   1682.3432              3053.4682              3055.0385
 Red. masses --      6.2985                 1.0354                 1.0343
 Frc consts  --     10.5031                 5.6880                 5.6874
 IR Inten    --     17.6674                26.9394                33.1714

                    121                    122                    123
                      A                      A                      A
 Frequencies --   3057.3897              3060.8933              3061.7331
 Red. masses --      1.0345                 1.0366                 1.0358
 Frc consts  --      5.6977                 5.7221                 5.7211
 IR Inten    --     39.3505                52.0998                30.2854

                    124                    125                    126
                      A                      A                      A
 Frequencies --   3065.2525              3126.2504              3128.3548
 Red. masses --      1.0374                 1.1027                 1.1031
 Frc consts  --      5.7431                 6.3498                 6.3607
 IR Inten    --     51.6936                47.3461                 5.2374

                    127                    128                    129
                      A                      A                      A
 Frequencies --   3130.0496              3130.3080              3131.7787
 Red. masses --      1.1033                 1.1032                 1.1027
 Frc consts  --      6.3687                 6.3689                 6.3720
 IR Inten    --     29.5348                30.7456                13.2012

                    130                    131                    132
                      A                      A                      A
 Frequencies --   3133.6960              3136.7939              3138.5254
 Red. masses --      1.1023                 1.1021                 1.1028
 Frc consts  --      6.3774                 6.3894                 6.4004
 IR Inten    --    109.8033                96.6052                66.9818

                    133                    134                    135
                      A                      A                      A
 Frequencies --   3140.6592              3143.8406              3169.2267
 Red. masses --      1.1033                 1.1032                 1.1013
 Frc consts  --      6.4120                 6.4245                 6.5171
 IR Inten    --     24.1002                30.6294                14.7482

                    136                    137                    138
                      A                      A                      A
 Frequencies --   3176.3414              3218.9862              3230.8455
 Red. masses --      1.0996                 1.0883                 1.0921
 Frc consts  --      6.5367                 6.6440                 6.7165
 IR Inten    --     21.7585                 3.0612                11.9445

                    139                    140                    141
                      A                      A                      A
 Frequencies --   3233.0992              3249.4925              3252.2472
 Red. masses --      1.0887                 1.0955                 1.0951
 Frc consts  --      6.7049                 6.8156                 6.8247
 IR Inten    --     10.3331                 6.4349                 8.7027

                    142                    143                    144
                      A                      A                      A
 Frequencies --   3276.4182              3504.4884              3656.5118
 Red. masses --      1.0884                 1.0836                 1.0827
 Frc consts  --      6.8837                 7.8406                 8.5288
 IR Inten    --      1.3424               344.8418               175.6633

 - Thermochemistry -
 -------------------
 Temperature   298.150 Kelvin.  Pressure   1.00000 Atm.
 Atom     1 has atomic number  6 and mass  12.00000

 Molecular mass:   322.20451 amu.
 Principal axes and moments of inertia in atomic units:
                           1         2         3
     Eigenvalues --  5106.53957********************
           X            0.17240   0.98280  -0.06625
           Y            0.98497  -0.17127   0.02245
           Z           -0.01072   0.06912   0.99755
 This molecule is an asymmetric top.
 Rotational symmetry number  1.
 Warning -- assumption of classical behavior for rotation
           may cause significant error
 Rotational temperatures (Kelvin)      0.01696     0.00684     0.00511
 Rotational constants (GHZ):           0.35342     0.14259     0.10639
 Zero-point vibrational energy    1133327.2 (Joules/Mol)
                                  270.87170 (Kcal/Mol)
 Warning -- explicit consideration of  39 degrees of freedom as
           vibrations may cause significant error
 Vibrational temperatures:     51.94    73.91    78.65    94.38   110.36
          (Kelvin)            146.36   170.43   195.87   252.53   300.27
                              308.31   346.33   354.67   376.71   382.08
                              382.73   393.60   422.65   440.15   451.27
                              474.26   486.07   494.38   502.22   523.79
                              542.54   554.34   570.34   593.40   617.50
                              666.87   687.16   709.49   729.50   776.99
                              805.22   830.15   841.96   887.87   917.19
                              943.58   971.46  1043.16  1062.30  1077.15
                             1093.95  1113.39  1115.55  1155.90  1180.50
                             1205.10  1251.00  1271.61  1309.99  1310.53
                             1322.43  1329.08  1351.00  1358.62  1361.17
                             1381.03  1383.18  1393.90  1414.89  1448.82
                             1450.97  1496.26  1509.14  1513.21  1514.83
                             1520.51  1624.51  1646.74  1665.31  1696.87
                             1724.18  1755.57  1760.44  1772.33  1784.18
                             1790.25  1829.77  1852.64  1873.95  1888.99
                             1926.36  1938.44  1997.78  2002.91  2005.78
                             2027.93  2036.88  2040.25  2049.20  2049.62
                             2075.15  2101.47  2129.64  2135.01  2136.55
                             2143.89  2146.39  2149.80  2151.74  2159.86
                             2165.24  2168.52  2171.85  2175.09  2186.94
                             2190.64  2199.07  2236.19  2241.19  2302.97
                             2357.16  2399.79  2420.52  4393.26  4395.52
                             4398.90  4403.94  4405.15  4410.21  4497.98
                             4501.00  4503.44  4503.82  4505.93  4508.69
                             4513.15  4515.64  4518.71  4523.29  4559.81
                             4570.05  4631.40  4648.47  4651.71  4675.29
                             4679.26  4714.04  5042.18  5260.90

 Zero-point correction=                           0.431662 (Hartree/Particle)
 Thermal correction to Energy=                    0.454090
 Thermal correction to Enthalpy=                  0.455034
 Thermal correction to Gibbs Free Energy=         0.381177
 Sum of electronic and zero-point Energies=          -1000.204101
 Sum of electronic and thermal Energies=             -1000.181673
 Sum of electronic and thermal Enthalpies=           -1000.180729
 Sum of electronic and thermal Free Energies=        -1000.254586

                     E (Thermal)             CV                S
                      KCal/Mol        Cal/Mol-Kelvin    Cal/Mol-Kelvin
 Total                  284.946             91.139            155.445
 Electronic               0.000              0.000              1.377
 Translational            0.889              2.981             43.206
 Rotational               0.889              2.981             35.349
 Vibrational            283.168             85.178             75.513
 Vibration     1          0.594              1.982              5.462
 Vibration     2          0.596              1.977              4.764
 Vibration     3          0.596              1.976              4.641
 Vibration     4          0.597              1.971              4.281
 Vibration     5          0.599              1.965              3.974
 Vibration     6          0.604              1.948              3.421
 Vibration     7          0.609              1.934              3.125
 Vibration     8          0.614              1.917              2.857
 Vibration     9          0.627              1.873              2.376
 Vibration    10          0.642              1.827              2.055
 Vibration    11          0.644              1.819              2.007
 Vibration    12          0.658              1.778              1.798
 Vibration    13          0.661              1.769              1.755
 Vibration    14          0.669              1.743              1.650
 Vibration    15          0.671              1.736              1.625
 Vibration    16          0.672              1.735              1.622
 Vibration    17          0.676              1.722              1.574
 Vibration    18          0.689              1.685              1.452
 Vibration    19          0.696              1.662              1.384
 Vibration    20          0.702              1.648              1.343
 Vibration    21          0.712              1.616              1.262
 Vibration    22          0.718              1.600              1.222
 Vibration    23          0.722              1.588              1.195
 Vibration    24          0.726              1.577              1.170
 Vibration    25          0.738              1.546              1.105
 Vibration    26          0.748              1.519              1.051
 Vibration    27          0.754              1.502              1.018
 Vibration    28          0.763              1.478              0.976
 Vibration    29          0.776              1.443              0.918
 Vibration    30          0.791              1.407              0.861
 Vibration    31          0.821              1.331              0.756
 Vibration    32          0.834              1.300              0.717
 Vibration    33          0.849              1.265              0.676
 Vibration    34          0.862              1.234              0.641
 Vibration    35          0.895              1.162              0.565
 Vibration    36          0.915              1.119              0.525
 Vibration    37          0.933              1.081              0.491
 Vibration    38          0.942              1.063              0.476
 Vibration    39          0.977              0.996              0.421

 Optimization completed.
    -- Stationary point found.
 Normal termination of Gaussian 16 at Wed Mar  6 13:06:35 2019.
